TITLE = "  5.0000E+01 [y]"
VARIABLES="X [m]","Y [m]","Z [m]","P [Pa]","sl","pH","Na+_tot_m","Ca++_tot_m","Fe++_tot_m","K+_tot_m","Al+++_tot_m","H+_tot_m","N2(aq)_tot_m","NO3-_tot_m","HCO3-_tot_m","Cl-_tot_m","SO4--_tot_m","HPO4--_tot_m","F-_tot_m","SiO2(aq)_tot_m","UO2++_tot_m","O2(aq)_tot_m","Tracer_tot_m","Quartz_vf","Chalcedony_vf","Calcite_vf","Ferrihydrite_vf","K-Feldspar_vf","Kaolinite_vf","Gibbsite_vf","Schoepite_vf","(UO2)3(PO4)2.4H2O_vf","Soddyite_vf","Jurbanite_vf","Quartz_rt","Chalcedony_rt","Calcite_rt","Ferrihydrite_rt","K-Feldspar_rt","Kaolinite_rt","Gibbsite_rt","Schoepite_rt","(UO2)3(PO4)2.4H2O_rt","Soddyite_rt","Jurbanite_rt",">SiOH",">FeOH",">AlOH",">SiOUO3H3++",">SiOUO3H2+",">SiOUO3H",">SiOUO3-",">SiOUO2(OH)2-",">FeOHUO3",">FeOHUO2++",">AlOUO2+","Na+_kd","Ca++_kd","Fe++_kd","K+_kd","Al+++_kd","H+_kd","N2(aq)_kd","NO3-_kd","HCO3-_kd","Cl-_kd","SO4--_kd","HPO4--_kd","F-_kd","SiO2(aq)_kd","UO2++_kd","O2(aq)_kd","Tracer_kd","Na+_total_sorb","Ca++_total_sorb","Fe++_total_sorb","K+_total_sorb","Al+++_total_sorb","H+_total_sorb","N2(aq)_total_sorb","NO3-_total_sorb","HCO3-_total_sorb","Cl-_total_sorb","SO4--_total_sorb","HPO4--_total_sorb","F-_total_sorb","SiO2(aq)_total_sorb","UO2++_total_sorb","O2(aq)_total_sorb","Tracer_total_sorb","Material_ID"
ZONE T= "  5.0000E+01", I=  15, J=   2, K=   6, VARLOCATION=([4-91]=CELLCENTERED), DATAPACKING=BLOCK
 0.000000E+00  1.000000E+02  2.000000E+02  3.000000E+02  4.000000E+02  5.000000E+02  6.000000E+02  7.000000E+02  8.000000E+02  9.000000E+02 
 1.000000E+03  1.100000E+03  1.200000E+03  1.300000E+03  1.400000E+03  0.000000E+00  1.000000E+02  2.000000E+02  3.000000E+02  4.000000E+02 
 5.000000E+02  6.000000E+02  7.000000E+02  8.000000E+02  9.000000E+02  1.000000E+03  1.100000E+03  1.200000E+03  1.300000E+03  1.400000E+03 
 0.000000E+00  1.000000E+02  2.000000E+02  3.000000E+02  4.000000E+02  5.000000E+02  6.000000E+02  7.000000E+02  8.000000E+02  9.000000E+02 
 1.000000E+03  1.100000E+03  1.200000E+03  1.300000E+03  1.400000E+03  0.000000E+00  1.000000E+02  2.000000E+02  3.000000E+02  4.000000E+02 
 5.000000E+02  6.000000E+02  7.000000E+02  8.000000E+02  9.000000E+02  1.000000E+03  1.100000E+03  1.200000E+03  1.300000E+03  1.400000E+03 
 0.000000E+00  1.000000E+02  2.000000E+02  3.000000E+02  4.000000E+02  5.000000E+02  6.000000E+02  7.000000E+02  8.000000E+02  9.000000E+02 
 1.000000E+03  1.100000E+03  1.200000E+03  1.300000E+03  1.400000E+03  0.000000E+00  1.000000E+02  2.000000E+02  3.000000E+02  4.000000E+02 
 5.000000E+02  6.000000E+02  7.000000E+02  8.000000E+02  9.000000E+02  1.000000E+03  1.100000E+03  1.200000E+03  1.300000E+03  1.400000E+03 
 0.000000E+00  1.000000E+02  2.000000E+02  3.000000E+02  4.000000E+02  5.000000E+02  6.000000E+02  7.000000E+02  8.000000E+02  9.000000E+02 
 1.000000E+03  1.100000E+03  1.200000E+03  1.300000E+03  1.400000E+03  0.000000E+00  1.000000E+02  2.000000E+02  3.000000E+02  4.000000E+02 
 5.000000E+02  6.000000E+02  7.000000E+02  8.000000E+02  9.000000E+02  1.000000E+03  1.100000E+03  1.200000E+03  1.300000E+03  1.400000E+03 
 0.000000E+00  1.000000E+02  2.000000E+02  3.000000E+02  4.000000E+02  5.000000E+02  6.000000E+02  7.000000E+02  8.000000E+02  9.000000E+02 
 1.000000E+03  1.100000E+03  1.200000E+03  1.300000E+03  1.400000E+03  0.000000E+00  1.000000E+02  2.000000E+02  3.000000E+02  4.000000E+02 
 5.000000E+02  6.000000E+02  7.000000E+02  8.000000E+02  9.000000E+02  1.000000E+03  1.100000E+03  1.200000E+03  1.300000E+03  1.400000E+03 
 0.000000E+00  1.000000E+02  2.000000E+02  3.000000E+02  4.000000E+02  5.000000E+02  6.000000E+02  7.000000E+02  8.000000E+02  9.000000E+02 
 1.000000E+03  1.100000E+03  1.200000E+03  1.300000E+03  1.400000E+03  0.000000E+00  1.000000E+02  2.000000E+02  3.000000E+02  4.000000E+02 
 5.000000E+02  6.000000E+02  7.000000E+02  8.000000E+02  9.000000E+02  1.000000E+03  1.100000E+03  1.200000E+03  1.300000E+03  1.400000E+03 
 0.000000E+00  0.000000E+00  0.000000E+00  0.000000E+00  0.000000E+00  0.000000E+00  0.000000E+00  0.000000E+00  0.000000E+00  0.000000E+00 
 0.000000E+00  0.000000E+00  0.000000E+00  0.000000E+00  0.000000E+00  1.000000E+00  1.000000E+00  1.000000E+00  1.000000E+00  1.000000E+00 
 1.000000E+00  1.000000E+00  1.000000E+00  1.000000E+00  1.000000E+00  1.000000E+00  1.000000E+00  1.000000E+00  1.000000E+00  1.000000E+00 
 0.000000E+00  0.000000E+00  0.000000E+00  0.000000E+00  0.000000E+00  0.000000E+00  0.000000E+00  0.000000E+00  0.000000E+00  0.000000E+00 
 0.000000E+00  0.000000E+00  0.000000E+00  0.000000E+00  0.000000E+00  1.000000E+00  1.000000E+00  1.000000E+00  1.000000E+00  1.000000E+00 
 1.000000E+00  1.000000E+00  1.000000E+00  1.000000E+00  1.000000E+00  1.000000E+00  1.000000E+00  1.000000E+00  1.000000E+00  1.000000E+00 
 0.000000E+00  0.000000E+00  0.000000E+00  0.000000E+00  0.000000E+00  0.000000E+00  0.000000E+00  0.000000E+00  0.000000E+00  0.000000E+00 
 0.000000E+00  0.000000E+00  0.000000E+00  0.000000E+00  0.000000E+00  1.000000E+00  1.000000E+00  1.000000E+00  1.000000E+00  1.000000E+00 
 1.000000E+00  1.000000E+00  1.000000E+00  1.000000E+00  1.000000E+00  1.000000E+00  1.000000E+00  1.000000E+00  1.000000E+00  1.000000E+00 
 0.000000E+00  0.000000E+00  0.000000E+00  0.000000E+00  0.000000E+00  0.000000E+00  0.000000E+00  0.000000E+00  0.000000E+00  0.000000E+00 
 0.000000E+00  0.000000E+00  0.000000E+00  0.000000E+00  0.000000E+00  1.000000E+00  1.000000E+00  1.000000E+00  1.000000E+00  1.000000E+00 
 1.000000E+00  1.000000E+00  1.000000E+00  1.000000E+00  1.000000E+00  1.000000E+00  1.000000E+00  1.000000E+00  1.000000E+00  1.000000E+00 
 0.000000E+00  0.000000E+00  0.000000E+00  0.000000E+00  0.000000E+00  0.000000E+00  0.000000E+00  0.000000E+00  0.000000E+00  0.000000E+00 
 0.000000E+00  0.000000E+00  0.000000E+00  0.000000E+00  0.000000E+00  1.000000E+00  1.000000E+00  1.000000E+00  1.000000E+00  1.000000E+00 
 1.000000E+00  1.000000E+00  1.000000E+00  1.000000E+00  1.000000E+00  1.000000E+00  1.000000E+00  1.000000E+00  1.000000E+00  1.000000E+00 
 0.000000E+00  0.000000E+00  0.000000E+00  0.000000E+00  0.000000E+00  0.000000E+00  0.000000E+00  0.000000E+00  0.000000E+00  0.000000E+00 
 0.000000E+00  0.000000E+00  0.000000E+00  0.000000E+00  0.000000E+00  1.000000E+00  1.000000E+00  1.000000E+00  1.000000E+00  1.000000E+00 
 1.000000E+00  1.000000E+00  1.000000E+00  1.000000E+00  1.000000E+00  1.000000E+00  1.000000E+00  1.000000E+00  1.000000E+00  1.000000E+00 
 0.000000E+00  0.000000E+00  0.000000E+00  0.000000E+00  0.000000E+00  0.000000E+00  0.000000E+00  0.000000E+00  0.000000E+00  0.000000E+00 
 0.000000E+00  0.000000E+00  0.000000E+00  0.000000E+00  0.000000E+00  0.000000E+00  0.000000E+00  0.000000E+00  0.000000E+00  0.000000E+00 
 0.000000E+00  0.000000E+00  0.000000E+00  0.000000E+00  0.000000E+00  0.000000E+00  0.000000E+00  0.000000E+00  0.000000E+00  0.000000E+00 
 1.000000E+01  1.000000E+01  1.000000E+01  1.000000E+01  1.000000E+01  1.000000E+01  1.000000E+01  1.000000E+01  1.000000E+01  1.000000E+01 
 1.000000E+01  1.000000E+01  1.000000E+01  1.000000E+01  1.000000E+01  1.000000E+01  1.000000E+01  1.000000E+01  1.000000E+01  1.000000E+01 
 1.000000E+01  1.000000E+01  1.000000E+01  1.000000E+01  1.000000E+01  1.000000E+01  1.000000E+01  1.000000E+01  1.000000E+01  1.000000E+01 
 2.000000E+01  2.000000E+01  2.000000E+01  2.000000E+01  2.000000E+01  2.000000E+01  2.000000E+01  2.000000E+01  2.000000E+01  2.000000E+01 
 2.000000E+01  2.000000E+01  2.000000E+01  2.000000E+01  2.000000E+01  2.000000E+01  2.000000E+01  2.000000E+01  2.000000E+01  2.000000E+01 
 2.000000E+01  2.000000E+01  2.000000E+01  2.000000E+01  2.000000E+01  2.000000E+01  2.000000E+01  2.000000E+01  2.000000E+01  2.000000E+01 
 3.000000E+01  3.000000E+01  3.000000E+01  3.000000E+01  3.000000E+01  3.000000E+01  3.000000E+01  3.000000E+01  3.000000E+01  3.000000E+01 
 3.000000E+01  3.000000E+01  3.000000E+01  3.000000E+01  3.000000E+01  3.000000E+01  3.000000E+01  3.000000E+01  3.000000E+01  3.000000E+01 
 3.000000E+01  3.000000E+01  3.000000E+01  3.000000E+01  3.000000E+01  3.000000E+01  3.000000E+01  3.000000E+01  3.000000E+01  3.000000E+01 
 4.000000E+01  4.000000E+01  4.000000E+01  4.000000E+01  4.000000E+01  4.000000E+01  4.000000E+01  4.000000E+01  4.000000E+01  4.000000E+01 
 4.000000E+01  4.000000E+01  4.000000E+01  4.000000E+01  4.000000E+01  4.000000E+01  4.000000E+01  4.000000E+01  4.000000E+01  4.000000E+01 
 4.000000E+01  4.000000E+01  4.000000E+01  4.000000E+01  4.000000E+01  4.000000E+01  4.000000E+01  4.000000E+01  4.000000E+01  4.000000E+01 
 5.000000E+01  5.000000E+01  5.000000E+01  5.000000E+01  5.000000E+01  5.000000E+01  5.000000E+01  5.000000E+01  5.000000E+01  5.000000E+01 
 5.000000E+01  5.000000E+01  5.000000E+01  5.000000E+01  5.000000E+01  5.000000E+01  5.000000E+01  5.000000E+01  5.000000E+01  5.000000E+01 
 5.000000E+01  5.000000E+01  5.000000E+01  5.000000E+01  5.000000E+01  5.000000E+01  5.000000E+01  5.000000E+01  5.000000E+01  5.000000E+01 
 3.750273E+05  3.747077E+05  3.742469E+05  3.735239E+05  3.721712E+05  3.691662E+05  3.625594E+05  3.522489E+05  3.401335E+05  3.272997E+05
 3.141003E+05  3.004187E+05  2.854274E+05  2.676608E+05  2.772530E+05  2.769595E+05  2.765427E+05  2.759529E+05  2.749711E+05  2.726733E+05
 2.661037E+05  2.551050E+05  2.425962E+05  2.296349E+05  2.164783E+05  2.030975E+05  1.886384E+05  1.705795E+05  1.795169E+05  1.792603E+05
 1.789054E+05  1.785284E+05  1.782526E+05  1.777337E+05  1.712584E+05  1.585130E+05  1.452272E+05  1.320452E+05  1.189420E+05  1.061716E+05
 9.543317E+04  8.607975E+04  8.306542E+04  8.293715E+04  8.295976E+04  8.397106E+04  8.743035E+04  9.325003E+04  9.138680E+04  8.098872E+04
 6.964713E+04  6.022907E+04  5.452757E+04  5.097355E+04  4.854406E+04  4.677506E+04  4.607118E+04  4.606206E+04  4.625641E+04  4.893028E+04
 6.206058E+04  8.118031E+04  8.103385E+04  6.133067E+04  4.667901E+04  4.253735E+04  4.147212E+04  4.093873E+04  4.059124E+04  4.035143E+04
 1.000000E+00  1.000000E+00  1.000000E+00  1.000000E+00  1.000000E+00  1.000000E+00  1.000000E+00  1.000000E+00  1.000000E+00  1.000000E+00
 1.000000E+00  1.000000E+00  1.000000E+00  1.000000E+00  1.000000E+00  1.000000E+00  1.000000E+00  1.000000E+00  1.000000E+00  1.000000E+00
 1.000000E+00  1.000000E+00  1.000000E+00  1.000000E+00  1.000000E+00  1.000000E+00  1.000000E+00  1.000000E+00  1.000000E+00  1.000000E+00
 1.000000E+00  1.000000E+00  1.000000E+00  1.000000E+00  1.000000E+00  1.000000E+00  1.000000E+00  1.000000E+00  1.000000E+00  1.000000E+00
 9.759404E-01  8.791607E-01  8.456399E-01  8.442495E-01  8.444943E-01  8.555538E-01  8.944878E-01  9.570689E-01  9.383314E-01  8.236085E-01
 7.248327E-01  6.680086E-01  6.416764E-01  6.276058E-01  6.188611E-01  6.128935E-01  6.106065E-01  6.105772E-01  6.112037E-01  6.202075E-01
 6.776200E-01  8.255956E-01  8.240757E-01  6.737157E-01  6.125786E-01  5.998177E-01  5.967766E-01  5.952881E-01  5.943304E-01  5.936748E-01
 7.541200E+00  7.639545E+00  6.840366E+00  4.351884E+00  3.600202E+00  3.429359E+00  3.390434E+00  3.383408E+00  3.382316E+00  3.382419E+00
 3.382059E+00  3.379642E+00  3.376362E+00  3.375826E+00  7.786583E+00  8.145027E+00  5.993401E+00  3.871364E+00  3.433190E+00  3.329693E+00
 3.316023E+00  3.327654E+00  3.334345E+00  3.337862E+00  3.340462E+00  3.345077E+00  3.354454E+00  3.363669E+00  8.609771E+00  8.767205E+00
 4.737130E+00  3.639676E+00  3.368755E+00  3.255822E+00  3.252347E+00  3.303836E+00  3.330015E+00  3.345776E+00  3.356602E+00  3.365727E+00
 3.375705E+00  3.398121E+00  8.947055E+00  8.867900E+00  4.217705E+00  3.508219E+00  3.337638E+00  3.165887E+00  3.165857E+00  3.326770E+00
 3.466324E+00  4.025418E+00  6.211321E+00  8.748843E+00  8.851815E+00  8.867491E+00  8.569836E+00  8.568731E+00  7.209053E+00  4.075002E+00
 3.373615E+00  3.053700E+00  3.053700E+00  3.372754E+00  4.060276E+00  6.995567E+00  8.559525E+00  8.569819E+00  8.569995E+00  8.570002E+00
 1.614725E-05  3.160096E-05  5.187748E-04  4.950111E-03  1.581209E-02  2.439282E-02  2.738193E-02  2.818999E-02  2.844598E-02  2.856392E-02
 2.870603E-02  2.900840E-02  2.934155E-02  2.942635E-02  4.652490E-05  8.000990E-05  1.414226E-03  1.005850E-02  2.470823E-02  3.155279E-02
 3.271504E-02  3.280769E-02  3.276493E-02  3.270919E-02  3.260039E-02  3.216915E-02  3.114270E-02  3.019434E-02  1.021933E-04  1.295478E-04
 2.720704E-03  1.505937E-02  2.955582E-02  3.355124E-02  3.365468E-02  3.311636E-02  3.231103E-02  3.142692E-02  3.057917E-02  2.975443E-02
 2.881538E-02  2.681598E-02  1.297907E-04  1.553201E-04  4.751716E-03  2.011986E-02  3.080132E-02  3.370142E-02  3.370141E-02  3.133673E-02
 2.228863E-02  7.253036E-03  8.679786E-04  1.957337E-04  1.671477E-04  1.625932E-04  1.312532E-04  1.314294E-04  2.561119E-04  6.314431E-03
 2.681768E-02  3.370095E-02  3.370095E-02  2.687565E-02  6.520962E-03  2.989242E-04  1.328168E-04  1.313345E-04  1.313038E-04  1.312980E-04
 9.998854E-06  9.999119E-06  1.003308E-05  1.035159E-05  1.113511E-05  1.175444E-05  1.197020E-05  1.202853E-05  1.204700E-05  1.205552E-05
 1.206578E-05  1.208760E-05  1.211162E-05  1.211772E-05  9.999385E-06  9.999990E-06  1.009504E-05  1.071868E-05  1.177698E-05  1.227144E-05
 1.235540E-05  1.236209E-05  1.235901E-05  1.235498E-05  1.234711E-05  1.231595E-05  1.224178E-05  1.217327E-05  9.999692E-06  1.000078E-05
 1.018769E-05  1.107942E-05  1.212725E-05  1.241594E-05  1.242341E-05  1.238453E-05  1.232632E-05  1.226240E-05  1.220112E-05  1.214154E-05
 1.207377E-05  1.192934E-05  9.999727E-06  1.000158E-05  1.033388E-05  1.144503E-05  1.221725E-05  1.242685E-05  1.242684E-05  1.225593E-05
 1.160176E-05  1.051459E-05  1.005289E-05  1.000425E-05  1.000217E-05  1.000184E-05  9.999545E-06  9.999557E-06  1.000857E-05  1.044659E-05
 1.192900E-05  1.242667E-05  1.242667E-05  1.193319E-05  1.046152E-05  1.001167E-05  9.999656E-06  9.999549E-06  9.999547E-06  9.999547E-06
 8.432995E-08  8.350898E-08  1.039129E-07  1.824308E-05  1.414310E-04  2.759215E-04  3.260353E-04  3.399066E-04  3.434560E-04  3.442537E-04
 3.454617E-04  3.498430E-04  3.554965E-04  3.565621E-04  8.273328E-08  8.273847E-08  2.621917E-07  6.030175E-05  2.771112E-04  3.898485E-04
 4.099347E-04  4.206093E-04  4.229433E-04  4.222102E-04  4.195513E-04  4.114050E-04  3.937059E-04  3.769014E-04  8.730674E-08  9.075937E-08
 8.688950E-06  1.243623E-04  3.633316E-04  3.825754E-04  3.823212E-04  4.124969E-04  4.114425E-04  4.007354E-04  3.879064E-04  3.740149E-04
 3.575703E-04  3.224340E-04  9.667951E-08  9.377275E-08  2.330162E-05  2.021352E-04  3.805418E-04  3.014197E-04  3.013891E-04  3.864911E-04
 2.389008E-04  3.866320E-05  1.867768E-07  9.031003E-08  9.325168E-08  9.376541E-08  8.662125E-08  8.660354E-08  8.964977E-08  3.317334E-05
 3.166569E-04  1.789140E-04  1.789140E-04  3.175054E-04  3.453870E-05  9.629072E-08  8.645788E-08  8.662100E-08  8.662383E-08  8.662394E-08
 1.839721E-04  1.655164E-04  1.495011E-04  1.152572E-04  7.293264E-05  4.630319E-05  3.758512E-05  3.554380E-05  3.521582E-05  3.531660E-05
 3.530344E-05  3.455866E-05  3.299519E-05  3.230244E-05  1.423450E-04  1.048247E-04  8.845496E-05  6.089768E-05  3.342622E-05  2.214680E-05
 2.024157E-05  2.025434E-05  2.060513E-05  2.102575E-05  2.145086E-05  2.184365E-05  2.224858E-05  2.281903E-05  6.395216E-05  4.756374E-05
 4.926148E-05  3.672866E-05  2.210051E-05  1.808202E-05  1.796604E-05  1.849457E-05  1.925393E-05  2.010305E-05  2.091992E-05  2.154769E-05
 2.223299E-05  2.367618E-05  2.629402E-05  2.706907E-05  3.283251E-05  2.423895E-05  1.898075E-05  1.750397E-05  1.750383E-05  1.870943E-05
 2.316978E-05  3.105815E-05  3.371562E-05  2.740801E-05  2.626865E-05  2.608629E-05  1.666960E-05  1.667228E-05  1.793512E-05  1.779664E-05
 1.730911E-05  1.715061E-05  1.715061E-05  1.730771E-05  1.778880E-05  1.794663E-05  1.669291E-05  1.665438E-05  1.665215E-05  1.665343E-05
 7.539057E-09  1.001698E-08  2.969825E-09  5.012766E-06  3.360702E-05  3.815035E-05  3.884656E-05  3.990484E-05  4.114188E-05  4.241190E-05
 4.361478E-05  4.454098E-05  4.494961E-05  4.546748E-05  1.518384E-08  3.987233E-08  3.005630E-09  4.036412E-05  4.649035E-05  3.706334E-05
 3.533225E-05  3.618218E-05  3.745645E-05  3.875149E-05  3.995942E-05  4.074411E-05  4.079621E-05  4.116813E-05  1.512553E-07  2.506321E-07
 5.189081E-07  4.932244E-05  4.256515E-05  3.206377E-05  3.175647E-05  3.365885E-05  3.594074E-05  3.709467E-05  3.738019E-05  3.772346E-05
 3.813616E-05  3.899858E-05  5.044908E-07  4.161335E-07  1.323418E-05  5.026760E-05  3.647002E-05  3.038872E-05  3.038831E-05  3.535176E-05
 4.774138E-05  3.189913E-05  4.293570E-09  3.100074E-07  4.000177E-07  4.157902E-07  2.856048E-07  2.848914E-07  1.639044E-08  2.854614E-05
 3.372481E-05  2.932897E-05  2.932898E-05  3.368763E-05  2.992550E-05  1.167615E-08  2.790151E-07  2.855945E-07  2.857083E-07  2.857128E-07
 1.102792E-05  7.770303E-06  4.483258E-05  4.713692E-04  1.337547E-03  2.006539E-03  2.235942E-03  2.294424E-03  2.311645E-03  2.318928E-03
 2.328297E-03  2.350036E-03  2.374356E-03  2.379903E-03  4.314487E-06 -6.590446E-07  1.285067E-04  8.370777E-04  2.012171E-03  2.577530E-03
 2.672061E-03  2.658217E-03  2.644596E-03  2.635573E-03  2.624785E-03  2.590551E-03  2.511703E-03  2.438648E-03 -6.400501E-06 -9.253425E-06
 2.478617E-04  1.236622E-03  2.391828E-03  2.830465E-03  2.843444E-03  2.717286E-03  2.622699E-03  2.542015E-03  2.472232E-03  2.407118E-03
 2.334198E-03  2.179251E-03 -1.383907E-05 -1.157299E-05  4.066311E-04  1.644733E-03  2.516097E-03  3.014979E-03  3.015040E-03  2.567071E-03
 1.819707E-03  5.969820E-04  6.062005E-05 -8.775236E-06 -1.113340E-05 -1.153830E-05 -5.890000E-06 -5.873914E-06  7.622965E-06  5.269232E-04
 2.212956E-03  3.263470E-03  3.263471E-03  2.217786E-03  5.428522E-04  1.239531E-05 -5.741183E-06 -5.889616E-06 -5.892164E-06 -5.892279E-06
 9.998854E-06  1.006309E-05  2.810125E-05  1.979474E-04  6.159330E-04  9.463946E-04  1.061529E-03  1.092655E-03  1.102516E-03  1.107059E-03
 1.112534E-03  1.124177E-03  1.136994E-03  1.140246E-03  9.999372E-06  1.024474E-05  6.090446E-05  3.935851E-04  9.582334E-04  1.222131E-03
 1.266943E-03  1.270513E-03  1.268863E-03  1.266712E-03  1.262515E-03  1.245878E-03  1.206280E-03  1.169696E-03  9.999676E-06  1.055672E-05
 1.102489E-04  5.859781E-04  1.145069E-03  1.299183E-03  1.303173E-03  1.282407E-03  1.251341E-03  1.217237E-03  1.184535E-03  1.152721E-03
 1.116497E-03  1.039371E-03  9.999732E-06  1.098255E-05  1.882523E-04  7.810635E-04  1.193103E-03  1.304976E-03  1.304975E-03  1.213757E-03
 8.647242E-04  2.847267E-04  3.843179E-05  1.250219E-05  1.139882E-05  1.122258E-05  9.999545E-06  1.000627E-05  1.481568E-05  2.485153E-04
 1.039434E-03  1.304957E-03  1.304957E-03  1.041670E-03  2.564822E-04  1.646683E-05  1.005935E-05  1.000214E-05  1.000093E-05  1.000075E-05
 9.998905E-06  1.167795E-05  4.838098E-04  4.929207E-03  1.586917E-02  2.451837E-02  2.753179E-02  2.834645E-02  2.860454E-02  2.872346E-02
 2.886674E-02  2.917149E-02  2.950693E-02  2.959207E-02  9.999586E-06  1.642113E-05  1.342347E-03  1.004962E-02  2.482821E-02  3.173524E-02
 3.290811E-02  3.300155E-02  3.295835E-02  3.290207E-02  3.279221E-02  3.235677E-02  3.132036E-02  3.036284E-02  1.000007E-05  2.458088E-05
 2.633835E-03  1.508514E-02  2.971826E-02  3.375191E-02  3.385634E-02  3.331283E-02  3.249974E-02  3.160713E-02  3.075122E-02  2.991855E-02
 2.897046E-02  2.695183E-02  1.000005E-05  3.572445E-05  4.675422E-03  2.019112E-02  3.097549E-02  3.390353E-02  3.390352E-02  3.151606E-02
 2.238079E-02  7.200458E-03  7.541594E-04  7.550171E-05  4.662298E-05  4.201021E-05  9.999547E-06  1.017561E-05  1.360531E-04  6.252695E-03
 2.695347E-02  3.390306E-02  3.390306E-02  2.701200E-02  6.461215E-03  1.792686E-04  1.156480E-05  1.006749E-05  1.003588E-05  1.003112E-05
 2.023825E-04  1.855039E-04  1.904039E-04  4.284006E-04  1.067675E-03  1.581510E-03  1.761095E-03  1.809673E-03  1.825083E-03  1.832201E-03
 1.840757E-03  1.858819E-03  1.878301E-03  1.882928E-03  1.649049E-04  1.318449E-04  1.874147E-04  6.973535E-04  1.590006E-03  2.009976E-03
 2.081315E-03  2.086925E-03  2.084238E-03  2.080768E-03  2.074005E-03  2.047210E-03  1.983469E-03  1.924625E-03  9.611610E-05  8.107102E-05
 2.329167E-04  9.900380E-04  1.885150E-03  2.132577E-03  2.138983E-03  2.105599E-03  2.055657E-03  2.000837E-03  1.948280E-03  1.897152E-03
 1.838939E-03  1.714993E-03  6.197476E-05  6.349200E-05  3.472580E-04  1.299651E-03  1.962032E-03  2.141877E-03  2.141876E-03  1.995235E-03
 1.434135E-03  5.018798E-04  1.062735E-04  6.466664E-05  6.287130E-05  6.257018E-05  6.015027E-05  6.015882E-05  6.788263E-05  4.435230E-04
 1.714992E-03  2.141847E-03  2.141848E-03  1.718587E-03  4.563290E-04  7.052572E-05  6.022989E-05  6.013707E-05  6.013441E-05  6.013545E-05
 9.998852E-06  1.000014E-05  1.032601E-05  1.339350E-05  2.094224E-05  2.691018E-05  2.898942E-05  2.955153E-05  2.972961E-05  2.981167E-05
 2.991053E-05  3.012080E-05  3.035227E-05  3.041101E-05  9.999364E-06  1.000392E-05  1.091888E-05  1.692706E-05  2.712434E-05  3.189007E-05
 3.269932E-05  3.276379E-05  3.273399E-05  3.269515E-05  3.261936E-05  3.231892E-05  3.160385E-05  3.094322E-05  9.999661E-06  1.000976E-05
 1.181021E-05  2.040174E-05  3.049860E-05  3.328166E-05  3.335370E-05  3.297872E-05  3.241770E-05  3.180180E-05  3.121123E-05  3.063674E-05
 2.998267E-05  2.858994E-05  9.999720E-06  1.001748E-05  1.321893E-05  2.392486E-05  3.136605E-05  3.338632E-05  3.338631E-05  3.173901E-05
 2.543566E-05  1.496111E-05  1.051307E-05  1.004475E-05  1.002482E-05  1.002163E-05  9.999545E-06  9.999666E-06  1.008652E-05  1.430702E-05
 2.859062E-05  3.338585E-05  3.338586E-05  2.863100E-05  1.445090E-05  1.011634E-05  1.000062E-05  9.999591E-06  9.999569E-06  9.999566E-06
 9.998861E-07  1.030177E-06  9.549175E-06  8.976106E-05  2.871596E-04  4.432239E-04  4.975974E-04  5.122969E-04  5.169538E-04  5.190997E-04
 5.216850E-04  5.271838E-04  5.332365E-04  5.347726E-04  9.999408E-07  1.115788E-06  2.504055E-05  1.821529E-04  4.488147E-04  5.734437E-04
 5.946067E-04  5.962927E-04  5.955132E-04  5.944976E-04  5.925154E-04  5.846584E-04  5.659577E-04  5.486804E-04  9.999739E-07  1.263043E-06
 4.834394E-05  2.730127E-04  5.370498E-04  6.098321E-04  6.117164E-04  6.019094E-04  5.872382E-04  5.711320E-04  5.556882E-04  5.406636E-04
 5.235566E-04  4.871328E-04  9.999781E-07  1.464129E-06  8.518191E-05  3.651440E-04  5.597348E-04  6.125679E-04  6.125676E-04  5.694887E-04
 4.046538E-04  1.307431E-04  1.442742E-05  2.181859E-06  1.660780E-06  1.577548E-06  9.999545E-07  1.003131E-06  3.274438E-06  1.136419E-04
 4.871625E-04  6.125593E-04  6.125593E-04  4.882185E-04  1.174044E-04  4.054209E-06  1.028197E-06  1.001180E-06  1.000610E-06  1.000524E-06
 9.998853E-07  1.003299E-06  1.963723E-06  1.031614E-05  3.291668E-05  5.057335E-05  5.671431E-05  5.837636E-05  5.890534E-05  5.915086E-05
 5.944529E-05  6.006691E-05  6.075046E-05  6.092526E-05  9.999372E-07  1.012957E-06  3.705360E-06  2.134579E-05  5.128332E-05  6.527554E-05
 6.765154E-05  6.784080E-05  6.775327E-05  6.763924E-05  6.741667E-05  6.653446E-05  6.443468E-05  6.249475E-05  9.999673E-07  1.029511E-06
 6.320462E-06  3.154499E-05  6.118902E-05  6.936089E-05  6.957246E-05  6.847131E-05  6.682401E-05  6.501560E-05  6.328155E-05  6.159457E-05
 5.967376E-05  5.558403E-05  9.999727E-07  1.052095E-06  1.045284E-05  4.188713E-05  6.373587E-05  6.966807E-05  6.966803E-05  6.483106E-05
 4.632328E-05  1.556845E-05  2.507767E-06  1.132670E-06  1.074154E-06  1.064808E-06  9.999544E-07  1.000311E-06  1.255355E-06  1.364805E-05
 5.558728E-05  6.966709E-05  6.966709E-05  5.570585E-05  1.407049E-05  1.342914E-06  1.003126E-06  1.000092E-06  1.000028E-06  1.000018E-06
 4.954506E-06  1.382016E-05  2.638388E-05  4.460479E-05  6.156898E-05  7.060353E-05  7.345900E-05  7.421639E-05  7.444597E-05  7.454250E-05
 7.466952E-05  7.501005E-05  7.559157E-05  7.590391E-05  2.447405E-05  4.190378E-05  5.536242E-05  6.826801E-05  7.607721E-05  7.828775E-05
 7.865018E-05  7.871713E-05  7.873485E-05  7.874151E-05  7.874957E-05  7.877537E-05  7.881909E-05  7.883608E-05  6.024077E-05  6.853767E-05
 7.290822E-05  7.687509E-05  7.877739E-05  7.894449E-05  7.894884E-05  7.894958E-05  7.894968E-05  7.894692E-05  7.893968E-05  7.893170E-05
 7.892300E-05  7.890253E-05  7.797269E-05  7.800502E-05  7.863087E-05  7.894702E-05  7.895200E-05  7.895133E-05  7.895128E-05  7.895176E-05
 7.895018E-05  7.887470E-05  7.869865E-05  7.865772E-05  7.866879E-05  7.867797E-05  7.891257E-05  7.891375E-05  7.891781E-05  7.894699E-05
 7.895025E-05  7.895021E-05  7.895021E-05  7.895025E-05  7.894784E-05  7.892369E-05  7.892113E-05  7.892158E-05  7.892195E-05  7.892126E-05
 1.804597E-04  1.668866E-04  1.701123E-04  1.736598E-04  1.877781E-04  1.890938E-04  1.892933E-04  1.891153E-04  1.889937E-04  1.889328E-04
 1.889042E-04  1.888844E-04  1.888299E-04  1.887972E-04  1.502929E-04  1.223131E-04  1.302425E-04  1.865871E-04  1.888028E-04  1.911361E-04
 1.914203E-04  1.901716E-04  1.894754E-04  1.891350E-04  1.889566E-04  1.887509E-04  1.882630E-04  1.878528E-04  9.182818E-05  8.171970E-05
 1.052721E-04  1.864818E-04  1.891330E-04  1.963462E-04  1.965869E-04  1.921888E-04  1.900854E-04  1.884857E-04  1.873737E-04  1.867550E-04
 1.856338E-04  1.831966E-04  6.609575E-05  6.771164E-05  1.077754E-04  1.787573E-04  1.906096E-04  2.051445E-04  2.051473E-04  1.912066E-04
 1.817544E-04  1.318667E-04  8.482993E-05  7.044680E-05  6.823265E-05  6.790428E-05  4.940757E-05  4.941158E-05  5.115671E-05  9.794539E-05
 1.877554E-04  2.204988E-04  2.204988E-04  1.877824E-04  1.001175E-04  5.131370E-05  4.944637E-05  4.940932E-05  4.940814E-05  4.940846E-05
 9.887889E-16  9.714307E-16  8.360009E-11  2.050285E-06  1.462937E-05  2.430808E-05  2.766291E-05  2.856925E-05  2.885514E-05  2.898565E-05
 2.914347E-05  2.948441E-05  2.987302E-05  2.998267E-05  9.403625E-16  2.981782E-15  2.296568E-08  8.764966E-06  2.494893E-05  3.239215E-05
 3.365506E-05  3.376219E-05  3.371635E-05  3.365446E-05  3.353597E-05  3.307398E-05  3.198587E-05  3.099226E-05  9.193241E-16  3.226466E-13
 3.713915E-07  1.396537E-05  3.031764E-05  3.456662E-05  3.467665E-05  3.412009E-05  3.323379E-05  3.224094E-05  3.134476E-05  3.049166E-05
 2.952133E-05  2.745647E-05  9.412958E-16  6.240823E-11  1.808640E-06  1.973251E-05  3.172635E-05  3.472637E-05  3.472635E-05  3.228022E-05
 2.221536E-05  5.157833E-06  1.774853E-08  6.162752E-10  5.810088E-10  4.997508E-10  8.972741E-16  4.909159E-15  6.734770E-10  4.654536E-06
 2.760553E-05  3.472588E-05  3.472588E-05  2.766549E-05  4.972154E-06  1.055586E-09  1.017442E-13  5.702175E-15  5.332776E-15  4.574279E-15
 2.527647E-04  2.527678E-04  2.527766E-04  2.573157E-04  2.881152E-04  3.217367E-04  3.342643E-04  3.377319E-04  3.386192E-04  3.388186E-04
 3.391205E-04  3.402158E-04  3.416292E-04  3.418957E-04  2.527772E-04  2.527803E-04  2.528280E-04  2.678408E-04  3.220430E-04  3.502235E-04
 3.552442E-04  3.579129E-04  3.584965E-04  3.583133E-04  3.576487E-04  3.556125E-04  3.511891E-04  3.469895E-04  2.527858E-04  2.527878E-04
 2.549391E-04  2.838597E-04  3.436006E-04  3.484072E-04  3.483435E-04  3.558884E-04  3.556252E-04  3.529486E-04  3.497416E-04  3.462701E-04
 3.421619E-04  3.333812E-04  2.527897E-04  2.527893E-04  2.585926E-04  3.033021E-04  3.479023E-04  3.281196E-04  3.281118E-04  3.493888E-04
 3.124916E-04  2.624302E-04  2.528091E-04  2.527840E-04  2.527845E-04  2.527846E-04  2.527827E-04  2.527827E-04  2.527835E-04  2.610544E-04
 3.319253E-04  2.974896E-04  2.974896E-04  3.321374E-04  2.613958E-04  2.527852E-04  2.527827E-04  2.527827E-04  2.527827E-04  2.527827E-04
 5.526354E-14  1.723548E-09  4.854955E-07  5.040469E-06  1.625010E-05  2.511249E-05  2.820019E-05  2.903493E-05  2.929938E-05  2.942124E-05
 2.956805E-05  2.988031E-05  3.022402E-05  3.031125E-05  2.288826E-13  6.583050E-09  1.365193E-06  1.028710E-05  2.542997E-05  3.250726E-05
 3.370904E-05  3.380478E-05  3.376051E-05  3.370284E-05  3.359027E-05  3.314410E-05  3.208215E-05  3.110103E-05  4.203567E-13  1.494225E-08
 2.688513E-06  1.544673E-05  3.044056E-05  3.457363E-05  3.468064E-05  3.412373E-05  3.329060E-05  3.237598E-05  3.149898E-05  3.064578E-05
 2.967432E-05  2.760593E-05  3.433094E-13  2.635960E-08  4.780423E-06  2.067858E-05  3.172877E-05  3.472899E-05  3.472897E-05  3.228266E-05
 2.292222E-05  7.367699E-06  7.625032E-07  6.711687E-08  3.752620E-08  3.279972E-08  3.106387E-15  1.804141E-10  1.291608E-07  6.396575E-06
 2.760762E-05  3.472850E-05  3.472851E-05  2.766759E-05  6.610235E-06  1.734415E-07  1.603883E-09  6.962692E-11  3.723254E-11  3.235965E-11
 2.100000E-01  2.100000E-01  2.100000E-01  2.100000E-01  2.100000E-01  2.100000E-01  2.100000E-01  2.100000E-01  2.100000E-01  2.100000E-01
 2.100000E-01  2.100000E-01  2.100000E-01  2.100000E-01  2.100000E-01  2.100000E-01  2.100000E-01  2.100000E-01  2.100000E-01  2.100000E-01
 2.100000E-01  2.100000E-01  2.100000E-01  2.100000E-01  2.100000E-01  2.100000E-01  2.100000E-01  2.100000E-01  2.100000E-01  2.100000E-01
 2.100000E-01  2.100000E-01  2.100000E-01  2.100000E-01  2.100000E-01  2.100000E-01  2.100000E-01  2.100000E-01  2.100000E-01  2.100000E-01
 2.100000E-01  2.100000E-01  2.100000E-01  2.100000E-01  2.100000E-01  2.100000E-01  2.100000E-01  2.100000E-01  2.100000E-01  2.100000E-01
 2.100000E-01  2.100000E-01  2.100000E-01  2.100000E-01  2.100000E-01  2.100000E-01  2.100000E-01  2.100000E-01  2.100000E-01  2.100000E-01
 2.100000E-01  2.100000E-01  2.100000E-01  2.100000E-01  2.100000E-01  2.100000E-01  2.100000E-01  2.100000E-01  2.100000E-01  2.100000E-01
 0.000000E+00  0.000000E+00  0.000000E+00  0.000000E+00  2.388675E-06  3.971729E-06  4.255061E-06  3.898488E-06  3.655597E-06  3.526977E-06