TITLE = ""
VARIABLES = "X, m" "Y, m" "Z, m" "Volume, m^3"" Aqueous Saturation"" Aqueous Pressure, pa"" Aqueous tracer Concentration, 1/m^3"" Rock/Soil Type"
ZONE T = "plot.0", I = 6, J = 5, K = 4, DATAPACKING = BLOCK,
VARLOCATION=(4=CELLCENTERED, 5=CELLCENTERED, 6=CELLCENTERED, 7=CELLCENTERED, 8=CELLCENTERED)
0.000000000E+00 10 21 33 46 60 0.000000000E+00 10 21 33 
46 60 0.000000000E+00 10 21 33 46 60 0.000000000E+00 10 
21 33 46 60 0.000000000E+00 10 21 33 46 60 
0.000000000E+00 10 21 33 46 60 0.000000000E+00 10 21 33 
46 60 0.000000000E+00 10 21 33 46 60 0.000000000E+00 10 
21 33 46 60 0.000000000E+00 10 21 33 46 60 
0.000000000E+00 10 21 33 46 60 0.000000000E+00 10 21 33 
46 60 0.000000000E+00 10 21 33 46 60 0.000000000E+00 10 
21 33 46 60 0.000000000E+00 10 21 33 46 60 
0.000000000E+00 10 21 33 46 60 0.000000000E+00 10 21 33 
46 60 0.000000000E+00 10 21 33 46 60 0.000000000E+00 10 
21 33 46 60 0.000000000E+00 10 21 33 46 60 
0.000000000E+00 0.000000000E+00 0.000000000E+00 0.000000000E+00 0.000000000E+00 0.000000000E+00 13 13 13 13 
13 13 25 25 25 25 25 25 36 36 
36 36 36 36 46 46 46 46 46 46 
0.000000000E+00 0.000000000E+00 0.000000000E+00 0.000000000E+00 0.000000000E+00 0.000000000E+00 13 13 13 13 
13 13 25 25 25 25 25 25 36 36 
36 36 36 36 46 46 46 46 46 46 
0.000000000E+00 0.000000000E+00 0.000000000E+00 0.000000000E+00 0.000000000E+00 0.000000000E+00 13 13 13 13 
13 13 25 25 25 25 25 25 36 36 
36 36 36 36 46 46 46 46 46 46 
0.000000000E+00 0.000000000E+00 0.000000000E+00 0.000000000E+00 0.000000000E+00 0.000000000E+00 13 13 13 13 
13 13 25 25 25 25 25 25 36 36 
36 36 36 36 46 46 46 46 46 46 
0.000000000E+00 0.000000000E+00 0.000000000E+00 0.000000000E+00 0.000000000E+00 0.000000000E+00 0.000000000E+00 0.000000000E+00 0.000000000E+00 0.000000000E+00 
0.000000000E+00 0.000000000E+00 0.000000000E+00 0.000000000E+00 0.000000000E+00 0.000000000E+00 0.000000000E+00 0.000000000E+00 0.000000000E+00 0.000000000E+00 
0.000000000E+00 0.000000000E+00 0.000000000E+00 0.000000000E+00 0.000000000E+00 0.000000000E+00 0.000000000E+00 0.000000000E+00 0.000000000E+00 0.000000000E+00 
15 15 15 15 15 15 15 15 15 15 
15 15 15 15 15 15 15 15 15 15 
15 15 15 15 15 15 15 15 15 15 
35 35 35 35 35 35 35 35 35 35 
35 35 35 35 35 35 35 35 35 35 
35 35 35 35 35 35 35 35 35 35 
60 60 60 60 60 60 60 60 60 60 
60 60 60 60 60 60 60 60 60 60 
60 60 60 60 60 60 60 60 60 60 
1.95000E+03 2.14500E+03 2.34000E+03 2.53500E+03 2.73000E+03 1.80000E+03 1.98000E+03 2.16000E+03 2.34000E+03 2.52000E+03 
1.65000E+03 1.81500E+03 1.98000E+03 2.14500E+03 2.31000E+03 1.50000E+03 1.65000E+03 1.80000E+03 1.95000E+03 2.10000E+03 
2.60000E+03 2.86000E+03 3.12000E+03 3.38000E+03 3.64000E+03 2.40000E+03 2.64000E+03 2.88000E+03 3.12000E+03 3.36000E+03 
2.20000E+03 2.42000E+03 2.64000E+03 2.86000E+03 3.08000E+03 2.00000E+03 2.20000E+03 2.40000E+03 2.60000E+03 2.80000E+03 
3.25000E+03 3.57500E+03 3.90000E+03 4.22500E+03 4.55000E+03 3.00000E+03 3.30000E+03 3.60000E+03 3.90000E+03 4.20000E+03 
2.75000E+03 3.02500E+03 3.30000E+03 3.57500E+03 3.85000E+03 2.50000E+03 2.75000E+03 3.00000E+03 3.25000E+03 3.50000E+03 
1.00000E+00 1.00000E+00 1.00000E+00 1.00000E+00 1.00000E+00 1.00000E+00 1.00000E+00 1.00000E+00 1.00000E+00 1.00000E+00 
1.00000E+00 1.00000E+00 1.00000E+00 1.00000E+00 1.00000E+00 1.00000E+00 1.00000E+00 1.00000E+00 1.00000E+00 1.00000E+00 
1.00000E+00 1.00000E+00 1.00000E+00 1.00000E+00 1.00000E+00 1.00000E+00 1.00000E+00 1.00000E+00 1.00000E+00 1.00000E+00 
1.00000E+00 1.00000E+00 1.00000E+00 1.00000E+00 1.00000E+00 1.00000E+00 1.00000E+00 1.00000E+00 1.00000E+00 1.00000E+00 
1.00167E-01 1.00167E-01 1.00167E-01 1.00167E-01 1.00167E-01 1.00167E-01 1.00167E-01 1.00167E-01 1.00167E-01 1.00167E-01 
1.00167E-01 1.00167E-01 1.00167E-01 1.00167E-01 1.00167E-01 1.00167E-01 1.00167E-01 1.00167E-01 1.00167E-01 1.00167E-01 
3.70647E+05 3.70647E+05 3.70647E+05 3.70647E+05 3.70647E+05 3.70647E+05 3.70647E+05 3.70647E+05 3.70647E+05 3.70647E+05 
3.70647E+05 3.70647E+05 3.70647E+05 3.70647E+05 3.70647E+05 3.70647E+05 3.70647E+05 3.70647E+05 3.70647E+05 3.70647E+05 
1.99260E+05 1.99260E+05 1.99260E+05 1.99260E+05 1.99260E+05 1.99260E+05 1.99260E+05 1.99260E+05 1.99260E+05 1.99260E+05 
1.99260E+05 1.99260E+05 1.99260E+05 1.99260E+05 1.99260E+05 1.99260E+05 1.99260E+05 1.99260E+05 1.99260E+05 1.99260E+05 
-2.10940E+04 -2.10940E+04 -2.10940E+04 -2.10940E+04 -2.10940E+04 -2.10940E+04 -2.10940E+04 -2.10940E+04 -2.10940E+04 -2.10940E+04 
-2.10940E+04 -2.10940E+04 -2.10940E+04 -2.10940E+04 -2.10940E+04 -2.10940E+04 -2.10940E+04 -2.10940E+04 -2.10940E+04 -2.10940E+04 
0.00000E+00 0.00000E+00 0.00000E+00 0.00000E+00 0.00000E+00 0.00000E+00 0.00000E+00 0.00000E+00 0.00000E+00 0.00000E+00 
0.00000E+00 0.00000E+00 0.00000E+00 0.00000E+00 0.00000E+00 0.00000E+00 0.00000E+00 0.00000E+00 0.00000E+00 0.00000E+00 
0.00000E+00 0.00000E+00 0.00000E+00 0.00000E+00 0.00000E+00 0.00000E+00 0.00000E+00 0.00000E+00 0.00000E+00 0.00000E+00 
0.00000E+00 0.00000E+00 0.00000E+00 0.00000E+00 0.00000E+00 0.00000E+00 0.00000E+00 0.00000E+00 0.00000E+00 0.00000E+00 
0.00000E+00 0.00000E+00 0.00000E+00 0.00000E+00 0.00000E+00 0.00000E+00 0.00000E+00 0.00000E+00 0.00000E+00 0.00000E+00 
0.00000E+00 0.00000E+00 0.00000E+00 0.00000E+00 0.00000E+00 0.00000E+00 0.00000E+00 0.00000E+00 0.00000E+00 0.00000E+00 
1.00000E+00 1.00000E+00 1.00000E+00 1.00000E+00 1.00000E+00 1.00000E+00 1.00000E+00 1.00000E+00 1.00000E+00 1.00000E+00 
1.00000E+00 1.00000E+00 1.00000E+00 1.00000E+00 1.00000E+00 1.00000E+00 1.00000E+00 1.00000E+00 1.00000E+00 1.00000E+00 
1.00000E+00 1.00000E+00 1.00000E+00 1.00000E+00 1.00000E+00 1.00000E+00 1.00000E+00 1.00000E+00 1.00000E+00 1.00000E+00 
1.00000E+00 1.00000E+00 1.00000E+00 1.00000E+00 1.00000E+00 1.00000E+00 1.00000E+00 1.00000E+00 1.00000E+00 1.00000E+00 
1.00000E+00 1.00000E+00 1.00000E+00 1.00000E+00 1.00000E+00 1.00000E+00 1.00000E+00 1.00000E+00 1.00000E+00 1.00000E+00 
1.00000E+00 1.00000E+00 1.00000E+00 1.00000E+00 1.00000E+00 1.00000E+00 1.00000E+00 1.00000E+00 1.00000E+00 1.00000E+00 
ZONE T = "plot.14", I = 6, J = 5, K = 4, DATAPACKING = BLOCK,
VARLOCATION=(4=CELLCENTERED, 5=CELLCENTERED, 6=CELLCENTERED, 7=CELLCENTERED, 8=CELLCENTERED)
0.000000000E+00 10 21 33 46 60 0.000000000E+00 10 21 33 
46 60 0.000000000E+00 10 21 33 46 60 0.000000000E+00 10 
21 33 46 60 0.000000000E+00 10 21 33 46 60 
0.000000000E+00 10 21 33 46 60 0.000000000E+00 10 21 33 
46 60 0.000000000E+00 10 21 33 46 60 0.000000000E+00 10 
21 33 46 60 0.000000000E+00 10 21 33 46 60 
0.000000000E+00 10 21 33 46 60 0.000000000E+00 10 21 33 
46 60 0.000000000E+00 10 21 33 46 60 0.000000000E+00 10 
21 33 46 60 0.000000000E+00 10 21 33 46 60 
0.000000000E+00 10 21 33 46 60 0.000000000E+00 10 21 33 
46 60 0.000000000E+00 10 21 33 46 60 0.000000000E+00 10 
21 33 46 60 0.000000000E+00 10 21 33 46 60 
0.000000000E+00 0.000000000E+00 0.000000000E+00 0.000000000E+00 0.000000000E+00 0.000000000E+00 13 13 13 13 
13 13 25 25 25 25 25 25 36 36 
36 36 36 36 46 46 46 46 46 46 
0.000000000E+00 0.000000000E+00 0.000000000E+00 0.000000000E+00 0.000000000E+00 0.000000000E+00 13 13 13 13 
13 13 25 25 25 25 25 25 36 36 
36 36 36 36 46 46 46 46 46 46 
0.000000000E+00 0.000000000E+00 0.000000000E+00 0.000000000E+00 0.000000000E+00 0.000000000E+00 13 13 13 13 
13 13 25 25 25 25 25 25 36 36 
36 36 36 36 46 46 46 46 46 46 
0.000000000E+00 0.000000000E+00 0.000000000E+00 0.000000000E+00 0.000000000E+00 0.000000000E+00 13 13 13 13 
13 13 25 25 25 25 25 25 36 36 
36 36 36 36 46 46 46 46 46 46 
0.000000000E+00 0.000000000E+00 0.000000000E+00 0.000000000E+00 0.000000000E+00 0.000000000E+00 0.000000000E+00 0.000000000E+00 0.000000000E+00 0.000000000E+00 
0.000000000E+00 0.000000000E+00 0.000000000E+00 0.000000000E+00 0.000000000E+00 0.000000000E+00 0.000000000E+00 0.000000000E+00 0.000000000E+00 0.000000000E+00 
0.000000000E+00 0.000000000E+00 0.000000000E+00 0.000000000E+00 0.000000000E+00 0.000000000E+00 0.000000000E+00 0.000000000E+00 0.000000000E+00 0.000000000E+00 
15 15 15 15 15 15 15 15 15 15 
15 15 15 15 15 15 15 15 15 15 
15 15 15 15 15 15 15 15 15 15 
35 35 35 35 35 35 35 35 35 35 
35 35 35 35 35 35 35 35 35 35 
35 35 35 35 35 35 35 35 35 35 
60 60 60 60 60 60 60 60 60 60 
60 60 60 60 60 60 60 60 60 60 
60 60 60 60 60 60 60 60 60 60 
1.95000E+03 2.14500E+03 2.34000E+03 2.53500E+03 2.73000E+03 1.80000E+03 1.98000E+03 2.16000E+03 2.34000E+03 2.52000E+03 
1.65000E+03 1.81500E+03 1.98000E+03 2.14500E+03 2.31000E+03 1.50000E+03 1.65000E+03 1.80000E+03 1.95000E+03 2.10000E+03 
2.60000E+03 2.86000E+03 3.12000E+03 3.38000E+03 3.64000E+03 2.40000E+03 2.64000E+03 2.88000E+03 3.12000E+03 3.36000E+03 
2.20000E+03 2.42000E+03 2.64000E+03 2.86000E+03 3.08000E+03 2.00000E+03 2.20000E+03 2.40000E+03 2.60000E+03 2.80000E+03 
3.25000E+03 3.57500E+03 3.90000E+03 4.22500E+03 4.55000E+03 3.00000E+03 3.30000E+03 3.60000E+03 3.90000E+03 4.20000E+03 
2.75000E+03 3.02500E+03 3.30000E+03 3.57500E+03 3.85000E+03 2.50000E+03 2.75000E+03 3.00000E+03 3.25000E+03 3.50000E+03 
1.00000E+00 1.00000E+00 1.00000E+00 1.00000E+00 1.00000E+00 1.00000E+00 1.00000E+00 1.00000E+00 1.00000E+00 1.00000E+00 
1.00000E+00 1.00000E+00 1.00000E+00 1.00000E+00 1.00000E+00 1.00000E+00 1.00000E+00 1.00000E+00 1.00000E+00 1.00000E+00 
1.00000E+00 1.00000E+00 1.00000E+00 1.00000E+00 1.00000E+00 1.00000E+00 1.00000E+00 1.00000E+00 1.00000E+00 1.00000E+00 
1.00000E+00 1.00000E+00 1.00000E+00 1.00000E+00 1.00000E+00 1.00000E+00 1.00000E+00 1.00000E+00 1.00000E+00 1.00000E+00 
1.00167E-01 1.00167E-01 1.00167E-01 1.00167E-01 1.00167E-01 1.00167E-01 1.00167E-01 1.00167E-01 1.01556E-01 1.00167E-01 
1.00167E-01 1.00167E-01 1.00167E-01 1.01556E-01 1.00167E-01 1.00167E-01 1.00167E-01 1.00167E-01 1.00167E-01 1.00167E-01 
3.70647E+05 3.70647E+05 3.70647E+05 3.70647E+05 3.70647E+05 3.70647E+05 3.70647E+05 3.70647E+05 3.70647E+05 3.70647E+05 
3.70647E+05 3.70647E+05 3.70647E+05 3.70647E+05 3.70647E+05 3.70647E+05 3.70647E+05 3.70647E+05 3.70647E+05 3.70647E+05 
1.99259E+05 1.99260E+05 1.99260E+05 1.99260E+05 1.99260E+05 1.99259E+05 1.99260E+05 1.99260E+05 1.99260E+05 1.99260E+05 
1.99259E+05 1.99260E+05 1.99260E+05 1.99260E+05 1.99260E+05 1.99259E+05 1.99260E+05 1.99260E+05 1.99260E+05 1.99260E+05 
-2.10940E+04 -2.10940E+04 -2.10940E+04 -2.10940E+04 -2.10940E+04 -2.10940E+04 -2.10940E+04 -2.10940E+04 4.83014E+04 -2.10940E+04 
-2.10940E+04 -2.10940E+04 -2.10940E+04 4.83014E+04 -2.10940E+04 -2.10940E+04 -2.10940E+04 -2.10940E+04 -2.10940E+04 -2.10940E+04 
0.00000E+00 0.00000E+00 0.00000E+00 0.00000E+00 0.00000E+00 0.00000E+00 0.00000E+00 0.00000E+00 0.00000E+00 0.00000E+00 
0.00000E+00 0.00000E+00 0.00000E+00 0.00000E+00 0.00000E+00 0.00000E+00 0.00000E+00 0.00000E+00 0.00000E+00 0.00000E+00 
0.00000E+00 0.00000E+00 0.00000E+00 0.00000E+00 0.00000E+00 0.00000E+00 0.00000E+00 0.00000E+00 0.00000E+00 0.00000E+00 
0.00000E+00 0.00000E+00 0.00000E+00 0.00000E+00 0.00000E+00 0.00000E+00 0.00000E+00 0.00000E+00 0.00000E+00 0.00000E+00 
0.00000E+00 0.00000E+00 0.00000E+00 0.00000E+00 0.00000E+00 0.00000E+00 0.00000E+00 0.00000E+00 1.36121E-02 0.00000E+00 
0.00000E+00 0.00000E+00 0.00000E+00 1.36121E-02 0.00000E+00 0.00000E+00 0.00000E+00 0.00000E+00 0.00000E+00 0.00000E+00 
1.00000E+00 1.00000E+00 1.00000E+00 1.00000E+00 1.00000E+00 1.00000E+00 1.00000E+00 1.00000E+00 1.00000E+00 1.00000E+00 
1.00000E+00 1.00000E+00 1.00000E+00 1.00000E+00 1.00000E+00 1.00000E+00 1.00000E+00 1.00000E+00 1.00000E+00 1.00000E+00 
1.00000E+00 1.00000E+00 1.00000E+00 1.00000E+00 1.00000E+00 1.00000E+00 1.00000E+00 1.00000E+00 1.00000E+00 1.00000E+00 
1.00000E+00 1.00000E+00 1.00000E+00 1.00000E+00 1.00000E+00 1.00000E+00 1.00000E+00 1.00000E+00 1.00000E+00 1.00000E+00 
1.00000E+00 1.00000E+00 1.00000E+00 1.00000E+00 1.00000E+00 1.00000E+00 1.00000E+00 1.00000E+00 1.00000E+00 1.00000E+00 
1.00000E+00 1.00000E+00 1.00000E+00 1.00000E+00 1.00000E+00 1.00000E+00 1.00000E+00 1.00000E+00 1.00000E+00 1.00000E+00 
ZONE T = "plot.25", I = 6, J = 5, K = 4, DATAPACKING = BLOCK,
VARLOCATION=(4=CELLCENTERED, 5=CELLCENTERED, 6=CELLCENTERED, 7=CELLCENTERED, 8=CELLCENTERED)
0.000000000E+00 10 21 33 46 60 0.000000000E+00 10 21 33 
46 60 0.000000000E+00 10 21 33 46 60 0.000000000E+00 10 
21 33 46 60 0.000000000E+00 10 21 33 46 60 
0.000000000E+00 10 21 33 46 60 0.000000000E+00 10 21 33 
46 60 0.000000000E+00 10 21 33 46 60 0.000000000E+00 10 
21 33 46 60 0.000000000E+00 10 21 33 46 60 
0.000000000E+00 10 21 33 46 60 0.000000000E+00 10 21 33 
46 60 0.000000000E+00 10 21 33 46 60 0.000000000E+00 10 
21 33 46 60 0.000000000E+00 10 21 33 46 60 
0.000000000E+00 10 21 33 46 60 0.000000000E+00 10 21 33 
46 60 0.000000000E+00 10 21 33 46 60 0.000000000E+00 10 
21 33 46 60 0.000000000E+00 10 21 33 46 60 
0.000000000E+00 0.000000000E+00 0.000000000E+00 0.000000000E+00 0.000000000E+00 0.000000000E+00 13 13 13 13 
13 13 25 25 25 25 25 25 36 36 
36 36 36 36 46 46 46 46 46 46 
0.000000000E+00 0.000000000E+00 0.000000000E+00 0.000000000E+00 0.000000000E+00 0.000000000E+00 13 13 13 13 
13 13 25 25 25 25 25 25 36 36 
36 36 36 36 46 46 46 46 46 46 
0.000000000E+00 0.000000000E+00 0.000000000E+00 0.000000000E+00 0.000000000E+00 0.000000000E+00 13 13 13 13 
13 13 25 25 25 25 25 25 36 36 
36 36 36 36 46 46 46 46 46 46 
0.000000000E+00 0.000000000E+00 0.000000000E+00 0.000000000E+00 0.000000000E+00 0.000000000E+00 13 13 13 13 
13 13 25 25 25 25 25 25 36 36 
36 36 36 36 46 46 46 46 46 46 
0.000000000E+00 0.000000000E+00 0.000000000E+00 0.000000000E+00 0.000000000E+00 0.000000000E+00 0.000000000E+00 0.000000000E+00 0.000000000E+00 0.000000000E+00 
0.000000000E+00 0.000000000E+00 0.000000000E+00 0.000000000E+00 0.000000000E+00 0.000000000E+00 0.000000000E+00 0.000000000E+00 0.000000000E+00 0.000000000E+00 
0.000000000E+00 0.000000000E+00 0.000000000E+00 0.000000000E+00 0.000000000E+00 0.000000000E+00 0.000000000E+00 0.000000000E+00 0.000000000E+00 0.000000000E+00 
15 15 15 15 15 15 15 15 15 15 
15 15 15 15 15 15 15 15 15 15 
15 15 15 15 15 15 15 15 15 15 
35 35 35 35 35 35 35 35 35 35 
35 35 35 35 35 35 35 35 35 35 
35 35 35 35 35 35 35 35 35 35 
60 60 60 60 60 60 60 60 60 60 
60 60 60 60 60 60 60 60 60 60 
60 60 60 60 60 60 60 60 60 60 
1.95000E+03 2.14500E+03 2.34000E+03 2.53500E+03 2.73000E+03 1.80000E+03 1.98000E+03 2.16000E+03 2.34000E+03 2.52000E+03 
1.65000E+03 1.81500E+03 1.98000E+03 2.14500E+03 2.31000E+03 1.50000E+03 1.65000E+03 1.80000E+03 1.95000E+03 2.10000E+03 
2.60000E+03 2.86000E+03 3.12000E+03 3.38000E+03 3.64000E+03 2.40000E+03 2.64000E+03 2.88000E+03 3.12000E+03 3.36000E+03 
2.20000E+03 2.42000E+03 2.64000E+03 2.86000E+03 3.08000E+03 2.00000E+03 2.20000E+03 2.40000E+03 2.60000E+03 2.80000E+03 
3.25000E+03 3.57500E+03 3.90000E+03 4.22500E+03 4.55000E+03 3.00000E+03 3.30000E+03 3.60000E+03 3.90000E+03 4.20000E+03 
2.75000E+03 3.02500E+03 3.30000E+03 3.57500E+03 3.85000E+03 2.50000E+03 2.75000E+03 3.00000E+03 3.25000E+03 3.50000E+03 
1.00000E+00 1.00000E+00 1.00000E+00 1.00000E+00 1.00000E+00 1.00000E+00 1.00000E+00 1.00000E+00 1.00000E+00 1.00000E+00 
1.00000E+00 1.00000E+00 1.00000E+00 1.00000E+00 1.00000E+00 1.00000E+00 1.00000E+00 1.00000E+00 1.00000E+00 1.00000E+00 
1.00000E+00 1.00000E+00 1.00000E+00 1.00000E+00 1.00000E+00 1.00000E+00 1.00000E+00 1.00000E+00 1.00000E+00 1.00000E+00 
1.00000E+00 1.00000E+00 1.00000E+00 1.00000E+00 1.00000E+00 1.00000E+00 1.00000E+00 1.00000E+00 1.00000E+00 1.00000E+00 
1.00167E-01 1.00167E-01 1.00167E-01 1.00167E-01 1.00167E-01 1.00167E-01 1.00167E-01 1.00167E-01 1.14064E-01 1.00167E-01 
1.00167E-01 1.00167E-01 1.00167E-01 1.14064E-01 1.00167E-01 1.00167E-01 1.00167E-01 1.00167E-01 1.00167E-01 1.00167E-01 
3.70647E+05 3.70647E+05 3.70647E+05 3.70647E+05 3.70647E+05 3.70647E+05 3.70647E+05 3.70647E+05 3.70647E+05 3.70647E+05 
3.70647E+05 3.70647E+05 3.70647E+05 3.70647E+05 3.70647E+05 3.70647E+05 3.70647E+05 3.70647E+05 3.70647E+05 3.70647E+05 
1.99254E+05 1.99260E+05 1.99260E+05 1.99260E+05 1.99260E+05 1.99254E+05 1.99260E+05 1.99260E+05 1.99260E+05 1.99260E+05 
1.99254E+05 1.99260E+05 1.99260E+05 1.99260E+05 1.99260E+05 1.99254E+05 1.99260E+05 1.99260E+05 1.99260E+05 1.99260E+05 
-2.10940E+04 -2.10940E+04 -2.10940E+04 -2.10940E+04 -2.10940E+04 -2.10940E+04 -2.10940E+04 -2.10940E+04 7.80751E+04 -2.10940E+04 
-2.10940E+04 -2.10940E+04 -2.10940E+04 7.80751E+04 -2.10940E+04 -2.10940E+04 -2.10940E+04 -2.10940E+04 -2.10940E+04 -2.10940E+04 
0.00000E+00 0.00000E+00 0.00000E+00 0.00000E+00 0.00000E+00 0.00000E+00 0.00000E+00 0.00000E+00 0.00000E+00 0.00000E+00 
0.00000E+00 0.00000E+00 0.00000E+00 0.00000E+00 0.00000E+00 0.00000E+00 0.00000E+00 0.00000E+00 0.00000E+00 0.00000E+00 
0.00000E+00 0.00000E+00 0.00000E+00 0.00000E+00 0.00000E+00 0.00000E+00 0.00000E+00 0.00000E+00 3.71303E-13 0.00000E+00 
0.00000E+00 0.00000E+00 0.00000E+00 3.71303E-13 0.00000E+00 0.00000E+00 0.00000E+00 0.00000E+00 0.00000E+00 0.00000E+00 
0.00000E+00 0.00000E+00 0.00000E+00 1.08937E-10 0.00000E+00 0.00000E+00 0.00000E+00 1.18429E-10 1.21195E-01 9.36624E-11 
0.00000E+00 0.00000E+00 1.18429E-10 1.21195E-01 9.36624E-11 0.00000E+00 0.00000E+00 0.00000E+00 1.69184E-10 0.00000E+00 
1.00000E+00 1.00000E+00 1.00000E+00 1.00000E+00 1.00000E+00 1.00000E+00 1.00000E+00 1.00000E+00 1.00000E+00 1.00000E+00 
1.00000E+00 1.00000E+00 1.00000E+00 1.00000E+00 1.00000E+00 1.00000E+00 1.00000E+00 1.00000E+00 1.00000E+00 1.00000E+00 
1.00000E+00 1.00000E+00 1.00000E+00 1.00000E+00 1.00000E+00 1.00000E+00 1.00000E+00 1.00000E+00 1.00000E+00 1.00000E+00 
1.00000E+00 1.00000E+00 1.00000E+00 1.00000E+00 1.00000E+00 1.00000E+00 1.00000E+00 1.00000E+00 1.00000E+00 1.00000E+00 
1.00000E+00 1.00000E+00 1.00000E+00 1.00000E+00 1.00000E+00 1.00000E+00 1.00000E+00 1.00000E+00 1.00000E+00 1.00000E+00 
1.00000E+00 1.00000E+00 1.00000E+00 1.00000E+00 1.00000E+00 1.00000E+00 1.00000E+00 1.00000E+00 1.00000E+00 1.00000E+00 
ZONE T = "plot.37", I = 6, J = 5, K = 4, DATAPACKING = BLOCK,
VARLOCATION=(4=CELLCENTERED, 5=CELLCENTERED, 6=CELLCENTERED, 7=CELLCENTERED, 8=CELLCENTERED)
0.000000000E+00 10 21 33 46 60 0.000000000E+00 10 21 33 
46 60 0.000000000E+00 10 21 33 46 60 0.000000000E+00 10 
21 33 46 60 0.000000000E+00 10 21 33 46 60 
0.000000000E+00 10 21 33 46 60 0.000000000E+00 10 21 33 
46 60 0.000000000E+00 10 21 33 46 60 0.000000000E+00 10 
21 33 46 60 0.000000000E+00 10 21 33 46 60 
0.000000000E+00 10 21 33 46 60 0.000000000E+00 10 21 33 
46 60 0.000000000E+00 10 21 33 46 60 0.000000000E+00 10 
21 33 46 60 0.000000000E+00 10 21 33 46 60 
0.000000000E+00 10 21 33 46 60 0.000000000E+00 10 21 33 
46 60 0.000000000E+00 10 21 33 46 60 0.000000000E+00 10 
21 33 46 60 0.000000000E+00 10 21 33 46 60 
0.000000000E+00 0.000000000E+00 0.000000000E+00 0.000000000E+00 0.000000000E+00 0.000000000E+00 13 13 13 13 
13 13 25 25 25 25 25 25 36 36 
36 36 36 36 46 46 46 46 46 46 
0.000000000E+00 0.000000000E+00 0.000000000E+00 0.000000000E+00 0.000000000E+00 0.000000000E+00 13 13 13 13 
13 13 25 25 25 25 25 25 36 36 
36 36 36 36 46 46 46 46 46 46 
0.000000000E+00 0.000000000E+00 0.000000000E+00 0.000000000E+00 0.000000000E+00 0.000000000E+00 13 13 13 13 
13 13 25 25 25 25 25 25 36 36 
36 36 36 36 46 46 46 46 46 46 
0.000000000E+00 0.000000000E+00 0.000000000E+00 0.000000000E+00 0.000000000E+00 0.000000000E+00 13 13 13 13 
13 13 25 25 25 25 25 25 36 36 
36 36 36 36 46 46 46 46 46 46 
0.000000000E+00 0.000000000E+00 0.000000000E+00 0.000000000E+00 0.000000000E+00 0.000000000E+00 0.000000000E+00 0.000000000E+00 0.000000000E+00 0.000000000E+00 
0.000000000E+00 0.000000000E+00 0.000000000E+00 0.000000000E+00 0.000000000E+00 0.000000000E+00 0.000000000E+00 0.000000000E+00 0.000000000E+00 0.000000000E+00 
0.000000000E+00 0.000000000E+00 0.000000000E+00 0.000000000E+00 0.000000000E+00 0.000000000E+00 0.000000000E+00 0.000000000E+00 0.000000000E+00 0.000000000E+00 
15 15 15 15 15 15 15 15 15 15 
15 15 15 15 15 15 15 15 15 15 
15 15 15 15 15 15 15 15 15 15 
35 35 35 35 35 35 35 35 35 35 
35 35 35 35 35 35 35 35 35 35 
35 35 35 35 35 35 35 35 35 35 
60 60 60 60 60 60 60 60 60 60 
60 60 60 60 60 60 60 60 60 60 
60 60 60 60 60 60 60 60 60 60 
1.95000E+03 2.14500E+03 2.34000E+03 2.53500E+03 2.73000E+03 1.80000E+03 1.98000E+03 2.16000E+03 2.34000E+03 2.52000E+03 
1.65000E+03 1.81500E+03 1.98000E+03 2.14500E+03 2.31000E+03 1.50000E+03 1.65000E+03 1.80000E+03 1.95000E+03 2.10000E+03 
2.60000E+03 2.86000E+03 3.12000E+03 3.38000E+03 3.64000E+03 2.40000E+03 2.64000E+03 2.88000E+03 3.12000E+03 3.36000E+03 
2.20000E+03 2.42000E+03 2.64000E+03 2.86000E+03 3.08000E+03 2.00000E+03 2.20000E+03 2.40000E+03 2.60000E+03 2.80000E+03 
3.25000E+03 3.57500E+03 3.90000E+03 4.22500E+03 4.55000E+03 3.00000E+03 3.30000E+03 3.60000E+03 3.90000E+03 4.20000E+03 
2.75000E+03 3.02500E+03 3.30000E+03 3.57500E+03 3.85000E+03 2.50000E+03 2.75000E+03 3.00000E+03 3.25000E+03 3.50000E+03 
1.00000E+00 1.00000E+00 1.00000E+00 1.00000E+00 1.00000E+00 1.00000E+00 1.00000E+00 1.00000E+00 1.00000E+00 1.00000E+00 
1.00000E+00 1.00000E+00 1.00000E+00 1.00000E+00 1.00000E+00 1.00000E+00 1.00000E+00 1.00000E+00 1.00000E+00 1.00000E+00 
1.00000E+00 1.00000E+00 1.00000E+00 1.00000E+00 1.00000E+00 1.00000E+00 1.00000E+00 1.00000E+00 1.00000E+00 1.00000E+00 
1.00000E+00 1.00000E+00 1.00000E+00 1.00000E+00 1.00000E+00 1.00000E+00 1.00000E+00 1.00000E+00 1.00000E+00 1.00000E+00 
1.00167E-01 1.00167E-01 1.00167E-01 1.00173E-01 1.00167E-01 1.00167E-01 1.00167E-01 1.00173E-01 2.39123E-01 1.00172E-01 
1.00167E-01 1.00167E-01 1.00173E-01 2.39122E-01 1.00172E-01 1.00167E-01 1.00167E-01 1.00167E-01 1.00176E-01 1.00167E-01 
3.70647E+05 3.70648E+05 3.70648E+05 3.70648E+05 3.70648E+05 3.70647E+05 3.70648E+05 3.70648E+05 3.70648E+05 3.70648E+05 
3.70647E+05 3.70648E+05 3.70648E+05 3.70648E+05 3.70648E+05 3.70647E+05 3.70648E+05 3.70648E+05 3.70648E+05 3.70648E+05 
1.99233E+05 1.99251E+05 1.99258E+05 1.99259E+05 1.99259E+05 1.99233E+05 1.99251E+05 1.99258E+05 1.99259E+05 1.99259E+05 
1.99233E+05 1.99251E+05 1.99258E+05 1.99259E+05 1.99259E+05 1.99233E+05 1.99251E+05 1.99258E+05 1.99259E+05 1.99259E+05 
-2.10940E+04 -2.10940E+04 -2.10940E+04 -1.94839E+04 -2.10940E+04 -2.10940E+04 -2.10940E+04 -1.93545E+04 9.14701E+04 -1.97032E+04 
-2.10940E+04 -2.10940E+04 -1.93546E+04 9.14700E+04 -1.97033E+04 -2.10940E+04 -2.10940E+04 -2.10940E+04 -1.86465E+04 -2.10940E+04 
0.00000E+00 0.00000E+00 0.00000E+00 0.00000E+00 0.00000E+00 0.00000E+00 0.00000E+00 0.00000E+00 0.00000E+00 0.00000E+00 
0.00000E+00 0.00000E+00 0.00000E+00 0.00000E+00 0.00000E+00 0.00000E+00 0.00000E+00 0.00000E+00 0.00000E+00 0.00000E+00 
0.00000E+00 0.00000E+00 0.00000E+00 0.00000E+00 0.00000E+00 0.00000E+00 0.00000E+00 0.00000E+00 1.18657E-07 0.00000E+00 
0.00000E+00 0.00000E+00 0.00000E+00 1.18653E-07 0.00000E+00 0.00000E+00 0.00000E+00 0.00000E+00 0.00000E+00 0.00000E+00 
0.00000E+00 0.00000E+00 0.00000E+00 3.24677E-05 0.00000E+00 0.00000E+00 0.00000E+00 3.51447E-05 5.78070E-01 2.79537E-05 
0.00000E+00 0.00000E+00 3.51434E-05 5.78070E-01 2.79526E-05 0.00000E+00 0.00000E+00 0.00000E+00 4.99808E-05 0.00000E+00 
1.00000E+00 1.00000E+00 1.00000E+00 1.00000E+00 1.00000E+00 1.00000E+00 1.00000E+00 1.00000E+00 1.00000E+00 1.00000E+00 
1.00000E+00 1.00000E+00 1.00000E+00 1.00000E+00 1.00000E+00 1.00000E+00 1.00000E+00 1.00000E+00 1.00000E+00 1.00000E+00 
1.00000E+00 1.00000E+00 1.00000E+00 1.00000E+00 1.00000E+00 1.00000E+00 1.00000E+00 1.00000E+00 1.00000E+00 1.00000E+00 
1.00000E+00 1.00000E+00 1.00000E+00 1.00000E+00 1.00000E+00 1.00000E+00 1.00000E+00 1.00000E+00 1.00000E+00 1.00000E+00 
1.00000E+00 1.00000E+00 1.00000E+00 1.00000E+00 1.00000E+00 1.00000E+00 1.00000E+00 1.00000E+00 1.00000E+00 1.00000E+00 
1.00000E+00 1.00000E+00 1.00000E+00 1.00000E+00 1.00000E+00 1.00000E+00 1.00000E+00 1.00000E+00 1.00000E+00 1.00000E+00 
ZONE T = "plot.49", I = 6, J = 5, K = 4, DATAPACKING = BLOCK,
VARLOCATION=(4=CELLCENTERED, 5=CELLCENTERED, 6=CELLCENTERED, 7=CELLCENTERED, 8=CELLCENTERED)
0.000000000E+00 10 21 33 46 60 0.000000000E+00 10 21 33 
46 60 0.000000000E+00 10 21 33 46 60 0.000000000E+00 10 
21 33 46 60 0.000000000E+00 10 21 33 46 60 
0.000000000E+00 10 21 33 46 60 0.000000000E+00 10 21 33 
46 60 0.000000000E+00 10 21 33 46 60 0.000000000E+00 10 
21 33 46 60 0.000000000E+00 10 21 33 46 60 
0.000000000E+00 10 21 33 46 60 0.000000000E+00 10 21 33 
46 60 0.000000000E+00 10 21 33 46 60 0.000000000E+00 10 
21 33 46 60 0.000000000E+00 10 21 33 46 60 
0.000000000E+00 10 21 33 46 60 0.000000000E+00 10 21 33 
46 60 0.000000000E+00 10 21 33 46 60 0.000000000E+00 10 
21 33 46 60 0.000000000E+00 10 21 33 46 60 
0.000000000E+00 0.000000000E+00 0.000000000E+00 0.000000000E+00 0.000000000E+00 0.000000000E+00 13 13 13 13 
13 13 25 25 25 25 25 25 36 36 
36 36 36 36 46 46 46 46 46 46 
0.000000000E+00 0.000000000E+00 0.000000000E+00 0.000000000E+00 0.000000000E+00 0.000000000E+00 13 13 13 13 
13 13 25 25 25 25 25 25 36 36 
36 36 36 36 46 46 46 46 46 46 
0.000000000E+00 0.000000000E+00 0.000000000E+00 0.000000000E+00 0.000000000E+00 0.000000000E+00 13 13 13 13 
13 13 25 25 25 25 25 25 36 36 
36 36 36 36 46 46 46 46 46 46 
0.000000000E+00 0.000000000E+00 0.000000000E+00 0.000000000E+00 0.000000000E+00 0.000000000E+00 13 13 13 13 
13 13 25 25 25 25 25 25 36 36 
36 36 36 36 46 46 46 46 46 46 
0.000000000E+00 0.000000000E+00 0.000000000E+00 0.000000000E+00 0.000000000E+00 0.000000000E+00 0.000000000E+00 0.000000000E+00 0.000000000E+00 0.000000000E+00 
0.000000000E+00 0.000000000E+00 0.000000000E+00 0.000000000E+00 0.000000000E+00 0.000000000E+00 0.000000000E+00 0.000000000E+00 0.000000000E+00 0.000000000E+00 
0.000000000E+00 0.000000000E+00 0.000000000E+00 0.000000000E+00 0.000000000E+00 0.000000000E+00 0.000000000E+00 0.000000000E+00 0.000000000E+00 0.000000000E+00 
15 15 15 15 15 15 15 15 15 15 
15 15 15 15 15 15 15 15 15 15 
15 15 15 15 15 15 15 15 15 15 
35 35 35 35 35 35 35 35 35 35 
35 35 35 35 35 35 35 35 35 35 
35 35 35 35 35 35 35 35 35 35 
60 60 60 60 60 60 60 60 60 60 
60 60 60 60 60 60 60 60 60 60 
60 60 60 60 60 60 60 60 60 60 
1.95000E+03 2.14500E+03 2.34000E+03 2.53500E+03 2.73000E+03 1.80000E+03 1.98000E+03 2.16000E+03 2.34000E+03 2.52000E+03 
1.65000E+03 1.81500E+03 1.98000E+03 2.14500E+03 2.31000E+03 1.50000E+03 1.65000E+03 1.80000E+03 1.95000E+03 2.10000E+03 
2.60000E+03 2.86000E+03 3.12000E+03 3.38000E+03 3.64000E+03 2.40000E+03 2.64000E+03 2.88000E+03 3.12000E+03 3.36000E+03 
2.20000E+03 2.42000E+03 2.64000E+03 2.86000E+03 3.08000E+03 2.00000E+03 2.20000E+03 2.40000E+03 2.60000E+03 2.80000E+03 
3.25000E+03 3.57500E+03 3.90000E+03 4.22500E+03 4.55000E+03 3.00000E+03 3.30000E+03 3.60000E+03 3.90000E+03 4.20000E+03 
2.75000E+03 3.02500E+03 3.30000E+03 3.57500E+03 3.85000E+03 2.50000E+03 2.75000E+03 3.00000E+03 3.25000E+03 3.50000E+03 
1.00000E+00 1.00000E+00 1.00000E+00 1.00000E+00 1.00000E+00 1.00000E+00 1.00000E+00 1.00000E+00 1.00000E+00 1.00000E+00 
1.00000E+00 1.00000E+00 1.00000E+00 1.00000E+00 1.00000E+00 1.00000E+00 1.00000E+00 1.00000E+00 1.00000E+00 1.00000E+00 
1.00000E+00 1.00000E+00 1.00000E+00 1.00000E+00 1.00000E+00 1.00000E+00 1.00000E+00 1.00000E+00 1.00000E+00 1.00000E+00 
1.00000E+00 1.00000E+00 1.00000E+00 1.00000E+00 1.00000E+00 1.00000E+00 1.00000E+00 1.00000E+00 1.00000E+00 1.00000E+00 
1.00167E-01 1.00169E-01 1.00231E-01 2.33046E-01 1.00207E-01 1.00167E-01 1.00213E-01 2.43571E-01 1.00000E+00 2.15253E-01 
1.00167E-01 1.00206E-01 2.37066E-01 1.00000E+00 2.10091E-01 1.00167E-01 1.00169E-01 1.00311E-01 2.92504E-01 1.00272E-01 
3.70674E+05 3.70734E+05 3.70803E+05 3.70867E+05 3.70868E+05 3.70676E+05 3.70743E+05 3.70827E+05 3.70919E+05 3.70896E+05 
3.70677E+05 3.70744E+05 3.70830E+05 3.70922E+05 3.70900E+05 3.70676E+05 3.70741E+05 3.70819E+05 3.70892E+05 3.70889E+05 
1.99440E+05 1.99970E+05 2.00761E+05 2.01782E+05 2.01256E+05 1.99480E+05 2.00158E+05 2.01463E+05 2.04630E+05 2.01997E+05 
1.99485E+05 2.00171E+05 2.01467E+05 2.04537E+05 2.02015E+05 1.99467E+05 2.00070E+05 2.01006E+05 2.02282E+05 2.01554E+05 
-2.09810E+04 -2.05366E+04 -7.07356E+03 9.13038E+04 -1.15661E+04 -2.09468E+04 -1.03181E+04 9.15855E+04 2.89099E+05 9.07502E+04 
-2.09429E+04 -1.16969E+04 9.14149E+04 2.78945E+05 9.05672E+04 -2.09587E+04 -2.04515E+04 4.36970E+03 9.25987E+04 -5.80564E+02 
0.00000E+00 0.00000E+00 3.10651E-13 7.12433E-10 1.82611E-13 0.00000E+00 1.77488E-13 7.70643E-10 1.23829E-06 6.00953E-10 
0.00000E+00 1.68636E-13 7.27934E-10 1.18669E-06 5.65538E-10 0.00000E+00 0.00000E+00 4.94256E-13 1.13553E-09 3.23779E-13 
0.00000E+00 4.06848E-12 9.42828E-09 1.20605E-05 5.18038E-09 3.54919E-12 9.57901E-09 1.44273E-05 8.04592E-03 9.56080E-06 
3.36621E-12 8.97585E-09 1.35848E-05 7.84293E-03 8.93985E-06 0.00000E+00 6.05809E-12 1.29286E-08 1.64266E-05 6.85933E-09 
0.00000E+00 0.00000E+00 3.26727E-04 5.24678E-01 1.94248E-04 0.00000E+00 2.42227E-04 5.41850E-01 9.30902E-01 4.91856E-01 
0.00000E+00 2.02043E-04 5.31398E-01 9.30964E-01 4.81279E-01 0.00000E+00 0.00000E+00 8.08834E-04 6.05388E-01 5.88176E-04 
1.00000E+00 1.00000E+00 1.00000E+00 1.00000E+00 1.00000E+00 1.00000E+00 1.00000E+00 1.00000E+00 1.00000E+00 1.00000E+00 
1.00000E+00 1.00000E+00 1.00000E+00 1.00000E+00 1.00000E+00 1.00000E+00 1.00000E+00 1.00000E+00 1.00000E+00 1.00000E+00 
1.00000E+00 1.00000E+00 1.00000E+00 1.00000E+00 1.00000E+00 1.00000E+00 1.00000E+00 1.00000E+00 1.00000E+00 1.00000E+00 
1.00000E+00 1.00000E+00 1.00000E+00 1.00000E+00 1.00000E+00 1.00000E+00 1.00000E+00 1.00000E+00 1.00000E+00 1.00000E+00 
1.00000E+00 1.00000E+00 1.00000E+00 1.00000E+00 1.00000E+00 1.00000E+00 1.00000E+00 1.00000E+00 1.00000E+00 1.00000E+00 
1.00000E+00 1.00000E+00 1.00000E+00 1.00000E+00 1.00000E+00 1.00000E+00 1.00000E+00 1.00000E+00 1.00000E+00 1.00000E+00 
ZONE T = "plot.80", I = 6, J = 5, K = 4, DATAPACKING = BLOCK,
VARLOCATION=(4=CELLCENTERED, 5=CELLCENTERED, 6=CELLCENTERED, 7=CELLCENTERED, 8=CELLCENTERED)
0.000000000E+00 10 21 33 46 60 0.000000000E+00 10 21 33 
46 60 0.000000000E+00 10 21 33 46 60 0.000000000E+00 10 
21 33 46 60 0.000000000E+00 10 21 33 46 60 
0.000000000E+00 10 21 33 46 60 0.000000000E+00 10 21 33 
46 60 0.000000000E+00 10 21 33 46 60 0.000000000E+00 10 