TITLE = ""
VARIABLES = "X, m" "Y, m" "Z, m" "Volume, m^3"" Aqueous Saturation"" Aqueous Pressure, pa"" Aqueous tracer Concentration, 1/m^3"" Rock/Soil Type"
ZONE T = "plot.0", I = 6, J = 5, K = 4, DATAPACKING = BLOCK,
VARLOCATION=(4=CELLCENTERED, 5=CELLCENTERED, 6=CELLCENTERED, 7=CELLCENTERED, 8=CELLCENTERED)
0.000000000E+00 10 21 33 46 60 0.000000000E+00 10 21 33 
46 60 0.000000000E+00 10 21 33 46 60 0.000000000E+00 10 
21 33 46 60 0.000000000E+00 10 21 33 46 60 
0.000000000E+00 10 21 33 46 60 0.000000000E+00 10 21 33 
46 60 0.000000000E+00 10 21 33 46 60 0.000000000E+00 10 
21 33 46 60 0.000000000E+00 10 21 33 46 60 
0.000000000E+00 10 21 33 46 60 0.000000000E+00 10 21 33 
46 60 0.000000000E+00 10 21 33 46 60 0.000000000E+00 10 
21 33 46 60 0.000000000E+00 10 21 33 46 60 
0.000000000E+00 10 21 33 46 60 0.000000000E+00 10 21 33 
46 60 0.000000000E+00 10 21 33 46 60 0.000000000E+00 10 
21 33 46 60 0.000000000E+00 10 21 33 46 60 
0.000000000E+00 0.000000000E+00 0.000000000E+00 0.000000000E+00 0.000000000E+00 0.000000000E+00 13 13 13 13 
13 13 25 25 25 25 25 25 36 36 
36 36 36 36 46 46 46 46 46 46 
0.000000000E+00 0.000000000E+00 0.000000000E+00 0.000000000E+00 0.000000000E+00 0.000000000E+00 13 13 13 13 
13 13 25 25 25 25 25 25 36 36 
36 36 36 36 46 46 46 46 46 46 
0.000000000E+00 0.000000000E+00 0.000000000E+00 0.000000000E+00 0.000000000E+00 0.000000000E+00 13 13 13 13 
13 13 25 25 25 25 25 25 36 36 
36 36 36 36 46 46 46 46 46 46 
0.000000000E+00 0.000000000E+00 0.000000000E+00 0.000000000E+00 0.000000000E+00 0.000000000E+00 13 13 13 13 
13 13 25 25 25 25 25 25 36 36 
36 36 36 36 46 46 46 46 46 46 
0.000000000E+00 0.000000000E+00 0.000000000E+00 0.000000000E+00 0.000000000E+00 0.000000000E+00 0.000000000E+00 0.000000000E+00 0.000000000E+00 0.000000000E+00 
0.000000000E+00 0.000000000E+00 0.000000000E+00 0.000000000E+00 0.000000000E+00 0.000000000E+00 0.000000000E+00 0.000000000E+00 0.000000000E+00 0.000000000E+00 
0.000000000E+00 0.000000000E+00 0.000000000E+00 0.000000000E+00 0.000000000E+00 0.000000000E+00 0.000000000E+00 0.000000000E+00 0.000000000E+00 0.000000000E+00 
15 15 15 15 15 15 15 15 15 15 
15 15 15 15 15 15 15 15 15 15 
15 15 15 15 15 15 15 15 15 15 
35 35 35 35 35 35 35 35 35 35 
35 35 35 35 35 35 35 35 35 35 
35 35 35 35 35 35 35 35 35 35 
60 60 60 60 60 60 60 60 60 60 
60 60 60 60 60 60 60 60 60 60 
60 60 60 60 60 60 60 60 60 60 
1.95000E+03 2.14500E+03 2.34000E+03 2.53500E+03 2.73000E+03 1.80000E+03 1.98000E+03 2.16000E+03 2.34000E+03 2.52000E+03 
1.65000E+03 1.81500E+03 1.98000E+03 2.14500E+03 2.31000E+03 1.50000E+03 1.65000E+03 1.80000E+03 1.95000E+03 2.10000E+03 
2.60000E+03 2.86000E+03 3.12000E+03 3.38000E+03 3.64000E+03 2.40000E+03 2.64000E+03 2.88000E+03 3.12000E+03 3.36000E+03 
2.20000E+03 2.42000E+03 2.64000E+03 2.86000E+03 3.08000E+03 2.00000E+03 2.20000E+03 2.40000E+03 2.60000E+03 2.80000E+03 
3.25000E+03 3.57500E+03 3.90000E+03 4.22500E+03 4.55000E+03 3.00000E+03 3.30000E+03 3.60000E+03 3.90000E+03 4.20000E+03 
2.75000E+03 3.02500E+03 3.30000E+03 3.57500E+03 3.85000E+03 2.50000E+03 2.75000E+03 3.00000E+03 3.25000E+03 3.50000E+03 
1.00000E+00 1.00000E+00 1.00000E+00 1.00000E+00 1.00000E+00 1.00000E+00 1.00000E+00 1.00000E+00 1.00000E+00 1.00000E+00 
1.00000E+00 1.00000E+00 1.00000E+00 1.00000E+00 1.00000E+00 1.00000E+00 1.00000E+00 1.00000E+00 1.00000E+00 1.00000E+00 
1.00000E+00 1.00000E+00 1.00000E+00 1.00000E+00 1.00000E+00 1.00000E+00 1.00000E+00 1.00000E+00 1.00000E+00 1.00000E+00 
1.00000E+00 1.00000E+00 1.00000E+00 1.00000E+00 1.00000E+00 1.00000E+00 1.00000E+00 1.00000E+00 1.00000E+00 1.00000E+00 
1.10088E-01 1.20039E-01 1.20039E-01 1.30012E-01 1.30012E-01 1.20039E-01 1.20039E-01 1.20039E-01 1.30012E-01 1.30012E-01 
1.20039E-01 1.20039E-01 1.20039E-01 1.20039E-01 1.20039E-01 1.20039E-01 1.20039E-01 1.20039E-01 1.20039E-01 1.20039E-01 
3.70647E+05 3.70647E+05 3.70647E+05 3.70647E+05 3.70647E+05 3.70647E+05 3.70647E+05 3.70647E+05 3.70647E+05 3.70647E+05 
3.70647E+05 3.70647E+05 3.70647E+05 3.70647E+05 3.70647E+05 3.70647E+05 3.70647E+05 3.70647E+05 3.70647E+05 3.70647E+05 
1.99260E+05 1.99260E+05 1.99260E+05 1.99260E+05 1.99260E+05 1.99260E+05 1.99260E+05 1.99260E+05 1.99260E+05 1.99260E+05 
1.99260E+05 1.99260E+05 1.99260E+05 1.99260E+05 1.99260E+05 1.99260E+05 1.99260E+05 1.99260E+05 1.99260E+05 1.99260E+05 
-2.10940E+04 -2.10940E+04 -2.10940E+04 -2.10940E+04 -2.10940E+04 -2.10940E+04 -2.10940E+04 -2.10940E+04 -2.10940E+04 -2.10940E+04 
-2.10940E+04 -2.10940E+04 -2.10940E+04 -2.10940E+04 -2.10940E+04 -2.10940E+04 -2.10940E+04 -2.10940E+04 -2.10940E+04 -2.10940E+04 
0.00000E+00 0.00000E+00 0.00000E+00 0.00000E+00 0.00000E+00 0.00000E+00 0.00000E+00 0.00000E+00 0.00000E+00 0.00000E+00 
0.00000E+00 0.00000E+00 0.00000E+00 0.00000E+00 0.00000E+00 0.00000E+00 0.00000E+00 0.00000E+00 0.00000E+00 0.00000E+00 
0.00000E+00 0.00000E+00 0.00000E+00 0.00000E+00 0.00000E+00 0.00000E+00 0.00000E+00 0.00000E+00 0.00000E+00 0.00000E+00 
0.00000E+00 0.00000E+00 0.00000E+00 0.00000E+00 0.00000E+00 0.00000E+00 0.00000E+00 0.00000E+00 0.00000E+00 0.00000E+00 
0.00000E+00 0.00000E+00 0.00000E+00 0.00000E+00 0.00000E+00 0.00000E+00 0.00000E+00 0.00000E+00 0.00000E+00 0.00000E+00 
0.00000E+00 0.00000E+00 0.00000E+00 0.00000E+00 0.00000E+00 0.00000E+00 0.00000E+00 0.00000E+00 0.00000E+00 0.00000E+00 
1.00000E+00 1.00000E+00 1.00000E+00 1.00000E+00 1.00000E+00 1.00000E+00 1.00000E+00 1.00000E+00 1.00000E+00 2.00000E+00 
2.00000E+00 1.00000E+00 1.00000E+00 2.00000E+00 2.00000E+00 2.00000E+00 2.00000E+00 2.00000E+00 2.00000E+00 2.00000E+00 
2.00000E+00 1.00000E+00 1.00000E+00 2.00000E+00 4.00000E+00 2.00000E+00 2.00000E+00 1.00000E+00 3.00000E+00 3.00000E+00 
3.00000E+00 2.00000E+00 2.00000E+00 3.00000E+00 3.00000E+00 3.00000E+00 3.00000E+00 2.00000E+00 3.00000E+00 3.00000E+00 
2.00000E+00 3.00000E+00 3.00000E+00 4.00000E+00 4.00000E+00 3.00000E+00 3.00000E+00 3.00000E+00 4.00000E+00 4.00000E+00 
3.00000E+00 3.00000E+00 3.00000E+00 3.00000E+00 3.00000E+00 3.00000E+00 3.00000E+00 3.00000E+00 3.00000E+00 3.00000E+00 
ZONE T = "plot.14", I = 6, J = 5, K = 4, DATAPACKING = BLOCK,
VARLOCATION=(4=CELLCENTERED, 5=CELLCENTERED, 6=CELLCENTERED, 7=CELLCENTERED, 8=CELLCENTERED)
0.000000000E+00 10 21 33 46 60 0.000000000E+00 10 21 33 
46 60 0.000000000E+00 10 21 33 46 60 0.000000000E+00 10 
21 33 46 60 0.000000000E+00 10 21 33 46 60 
0.000000000E+00 10 21 33 46 60 0.000000000E+00 10 21 33 
46 60 0.000000000E+00 10 21 33 46 60 0.000000000E+00 10 
21 33 46 60 0.000000000E+00 10 21 33 46 60 
0.000000000E+00 10 21 33 46 60 0.000000000E+00 10 21 33 
46 60 0.000000000E+00 10 21 33 46 60 0.000000000E+00 10 
21 33 46 60 0.000000000E+00 10 21 33 46 60 
0.000000000E+00 10 21 33 46 60 0.000000000E+00 10 21 33 
46 60 0.000000000E+00 10 21 33 46 60 0.000000000E+00 10 
21 33 46 60 0.000000000E+00 10 21 33 46 60 
0.000000000E+00 0.000000000E+00 0.000000000E+00 0.000000000E+00 0.000000000E+00 0.000000000E+00 13 13 13 13 
13 13 25 25 25 25 25 25 36 36 
36 36 36 36 46 46 46 46 46 46 
0.000000000E+00 0.000000000E+00 0.000000000E+00 0.000000000E+00 0.000000000E+00 0.000000000E+00 13 13 13 13 
13 13 25 25 25 25 25 25 36 36 
36 36 36 36 46 46 46 46 46 46 
0.000000000E+00 0.000000000E+00 0.000000000E+00 0.000000000E+00 0.000000000E+00 0.000000000E+00 13 13 13 13 
13 13 25 25 25 25 25 25 36 36 
36 36 36 36 46 46 46 46 46 46 
0.000000000E+00 0.000000000E+00 0.000000000E+00 0.000000000E+00 0.000000000E+00 0.000000000E+00 13 13 13 13 
13 13 25 25 25 25 25 25 36 36 
36 36 36 36 46 46 46 46 46 46 
0.000000000E+00 0.000000000E+00 0.000000000E+00 0.000000000E+00 0.000000000E+00 0.000000000E+00 0.000000000E+00 0.000000000E+00 0.000000000E+00 0.000000000E+00 
0.000000000E+00 0.000000000E+00 0.000000000E+00 0.000000000E+00 0.000000000E+00 0.000000000E+00 0.000000000E+00 0.000000000E+00 0.000000000E+00 0.000000000E+00 
0.000000000E+00 0.000000000E+00 0.000000000E+00 0.000000000E+00 0.000000000E+00 0.000000000E+00 0.000000000E+00 0.000000000E+00 0.000000000E+00 0.000000000E+00 
15 15 15 15 15 15 15 15 15 15 
15 15 15 15 15 15 15 15 15 15 
15 15 15 15 15 15 15 15 15 15 
35 35 35 35 35 35 35 35 35 35 
35 35 35 35 35 35 35 35 35 35 
35 35 35 35 35 35 35 35 35 35 
60 60 60 60 60 60 60 60 60 60 
60 60 60 60 60 60 60 60 60 60 
60 60 60 60 60 60 60 60 60 60 
1.95000E+03 2.14500E+03 2.34000E+03 2.53500E+03 2.73000E+03 1.80000E+03 1.98000E+03 2.16000E+03 2.34000E+03 2.52000E+03 
1.65000E+03 1.81500E+03 1.98000E+03 2.14500E+03 2.31000E+03 1.50000E+03 1.65000E+03 1.80000E+03 1.95000E+03 2.10000E+03 
2.60000E+03 2.86000E+03 3.12000E+03 3.38000E+03 3.64000E+03 2.40000E+03 2.64000E+03 2.88000E+03 3.12000E+03 3.36000E+03 
2.20000E+03 2.42000E+03 2.64000E+03 2.86000E+03 3.08000E+03 2.00000E+03 2.20000E+03 2.40000E+03 2.60000E+03 2.80000E+03 
3.25000E+03 3.57500E+03 3.90000E+03 4.22500E+03 4.55000E+03 3.00000E+03 3.30000E+03 3.60000E+03 3.90000E+03 4.20000E+03 
2.75000E+03 3.02500E+03 3.30000E+03 3.57500E+03 3.85000E+03 2.50000E+03 2.75000E+03 3.00000E+03 3.25000E+03 3.50000E+03 
1.00000E+00 1.00000E+00 1.00000E+00 1.00000E+00 1.00000E+00 1.00000E+00 1.00000E+00 1.00000E+00 1.00000E+00 1.00000E+00 
1.00000E+00 1.00000E+00 1.00000E+00 1.00000E+00 1.00000E+00 1.00000E+00 1.00000E+00 1.00000E+00 1.00000E+00 1.00000E+00 
1.00000E+00 1.00000E+00 1.00000E+00 1.00000E+00 1.00000E+00 1.00000E+00 1.00000E+00 1.00000E+00 1.00000E+00 1.00000E+00 
1.00000E+00 1.00000E+00 1.00000E+00 1.00000E+00 1.00000E+00 1.00000E+00 1.00000E+00 1.00000E+00 1.00000E+00 1.00000E+00 
1.10088E-01 1.20039E-01 1.20039E-01 1.30012E-01 1.30012E-01 1.20039E-01 1.20039E-01 1.20039E-01 1.31395E-01 1.30012E-01 
1.20039E-01 1.20039E-01 1.20039E-01 1.21767E-01 1.20039E-01 1.20039E-01 1.20039E-01 1.20039E-01 1.20039E-01 1.20039E-01 
3.70647E+05 3.70647E+05 3.70647E+05 3.70647E+05 3.70647E+05 3.70647E+05 3.70647E+05 3.70647E+05 3.70647E+05 3.70647E+05 
3.70647E+05 3.70647E+05 3.70647E+05 3.70647E+05 3.70647E+05 3.70647E+05 3.70647E+05 3.70647E+05 3.70647E+05 3.70647E+05 
1.99254E+05 1.99260E+05 1.99260E+05 1.99260E+05 1.99260E+05 1.99252E+05 1.99260E+05 1.99260E+05 1.99260E+05 1.99260E+05 
1.99230E+05 1.99257E+05 1.99260E+05 1.99260E+05 1.99260E+05 1.99232E+05 1.99250E+05 1.99260E+05 1.99260E+05 1.99260E+05 
-2.10940E+04 -2.10940E+04 -2.10940E+04 -2.10940E+04 -2.10940E+04 -2.10940E+04 -2.10940E+04 -2.10940E+04 8.00816E+04 -2.10940E+04 
-2.10940E+04 -2.10940E+04 -2.10940E+04 7.17556E+04 -2.10940E+04 -2.10940E+04 -2.10940E+04 -2.10940E+04 -2.10940E+04 -2.10940E+04 
0.00000E+00 0.00000E+00 0.00000E+00 0.00000E+00 0.00000E+00 0.00000E+00 0.00000E+00 0.00000E+00 0.00000E+00 0.00000E+00 
0.00000E+00 0.00000E+00 0.00000E+00 0.00000E+00 0.00000E+00 0.00000E+00 0.00000E+00 0.00000E+00 0.00000E+00 0.00000E+00 
0.00000E+00 0.00000E+00 0.00000E+00 0.00000E+00 0.00000E+00 0.00000E+00 0.00000E+00 0.00000E+00 0.00000E+00 0.00000E+00 
0.00000E+00 0.00000E+00 0.00000E+00 0.00000E+00 0.00000E+00 0.00000E+00 0.00000E+00 0.00000E+00 0.00000E+00 0.00000E+00 
0.00000E+00 0.00000E+00 0.00000E+00 0.00000E+00 0.00000E+00 0.00000E+00 0.00000E+00 0.00000E+00 1.05210E-02 0.00000E+00 
0.00000E+00 0.00000E+00 0.00000E+00 1.41911E-02 0.00000E+00 0.00000E+00 0.00000E+00 0.00000E+00 0.00000E+00 0.00000E+00 
1.00000E+00 1.00000E+00 1.00000E+00 1.00000E+00 1.00000E+00 1.00000E+00 1.00000E+00 1.00000E+00 1.00000E+00 2.00000E+00 
2.00000E+00 1.00000E+00 1.00000E+00 2.00000E+00 2.00000E+00 2.00000E+00 2.00000E+00 2.00000E+00 2.00000E+00 2.00000E+00 
2.00000E+00 1.00000E+00 1.00000E+00 2.00000E+00 4.00000E+00 2.00000E+00 2.00000E+00 1.00000E+00 3.00000E+00 3.00000E+00 
3.00000E+00 2.00000E+00 2.00000E+00 3.00000E+00 3.00000E+00 3.00000E+00 3.00000E+00 2.00000E+00 3.00000E+00 3.00000E+00 
2.00000E+00 3.00000E+00 3.00000E+00 4.00000E+00 4.00000E+00 3.00000E+00 3.00000E+00 3.00000E+00 4.00000E+00 4.00000E+00 
3.00000E+00 3.00000E+00 3.00000E+00 3.00000E+00 3.00000E+00 3.00000E+00 3.00000E+00 3.00000E+00 3.00000E+00 3.00000E+00 
ZONE T = "plot.25", I = 6, J = 5, K = 4, DATAPACKING = BLOCK,
VARLOCATION=(4=CELLCENTERED, 5=CELLCENTERED, 6=CELLCENTERED, 7=CELLCENTERED, 8=CELLCENTERED)
0.000000000E+00 10 21 33 46 60 0.000000000E+00 10 21 33 
46 60 0.000000000E+00 10 21 33 46 60 0.000000000E+00 10 
21 33 46 60 0.000000000E+00 10 21 33 46 60 
0.000000000E+00 10 21 33 46 60 0.000000000E+00 10 21 33 
46 60 0.000000000E+00 10 21 33 46 60 0.000000000E+00 10 
21 33 46 60 0.000000000E+00 10 21 33 46 60 
0.000000000E+00 10 21 33 46 60 0.000000000E+00 10 21 33 
46 60 0.000000000E+00 10 21 33 46 60 0.000000000E+00 10 
21 33 46 60 0.000000000E+00 10 21 33 46 60 
0.000000000E+00 10 21 33 46 60 0.000000000E+00 10 21 33 
46 60 0.000000000E+00 10 21 33 46 60 0.000000000E+00 10 
21 33 46 60 0.000000000E+00 10 21 33 46 60 
0.000000000E+00 0.000000000E+00 0.000000000E+00 0.000000000E+00 0.000000000E+00 0.000000000E+00 13 13 13 13 
13 13 25 25 25 25 25 25 36 36 
36 36 36 36 46 46 46 46 46 46 
0.000000000E+00 0.000000000E+00 0.000000000E+00 0.000000000E+00 0.000000000E+00 0.000000000E+00 13 13 13 13 
13 13 25 25 25 25 25 25 36 36 
36 36 36 36 46 46 46 46 46 46 
0.000000000E+00 0.000000000E+00 0.000000000E+00 0.000000000E+00 0.000000000E+00 0.000000000E+00 13 13 13 13 
13 13 25 25 25 25 25 25 36 36 
36 36 36 36 46 46 46 46 46 46 
0.000000000E+00 0.000000000E+00 0.000000000E+00 0.000000000E+00 0.000000000E+00 0.000000000E+00 13 13 13 13 
13 13 25 25 25 25 25 25 36 36 
36 36 36 36 46 46 46 46 46 46 
0.000000000E+00 0.000000000E+00 0.000000000E+00 0.000000000E+00 0.000000000E+00 0.000000000E+00 0.000000000E+00 0.000000000E+00 0.000000000E+00 0.000000000E+00 
0.000000000E+00 0.000000000E+00 0.000000000E+00 0.000000000E+00 0.000000000E+00 0.000000000E+00 0.000000000E+00 0.000000000E+00 0.000000000E+00 0.000000000E+00 
0.000000000E+00 0.000000000E+00 0.000000000E+00 0.000000000E+00 0.000000000E+00 0.000000000E+00 0.000000000E+00 0.000000000E+00 0.000000000E+00 0.000000000E+00 
15 15 15 15 15 15 15 15 15 15 
15 15 15 15 15 15 15 15 15 15 
15 15 15 15 15 15 15 15 15 15 
35 35 35 35 35 35 35 35 35 35 
35 35 35 35 35 35 35 35 35 35 
35 35 35 35 35 35 35 35 35 35 
60 60 60 60 60 60 60 60 60 60 
60 60 60 60 60 60 60 60 60 60 
60 60 60 60 60 60 60 60 60 60 
1.95000E+03 2.14500E+03 2.34000E+03 2.53500E+03 2.73000E+03 1.80000E+03 1.98000E+03 2.16000E+03 2.34000E+03 2.52000E+03 
1.65000E+03 1.81500E+03 1.98000E+03 2.14500E+03 2.31000E+03 1.50000E+03 1.65000E+03 1.80000E+03 1.95000E+03 2.10000E+03 
2.60000E+03 2.86000E+03 3.12000E+03 3.38000E+03 3.64000E+03 2.40000E+03 2.64000E+03 2.88000E+03 3.12000E+03 3.36000E+03 
2.20000E+03 2.42000E+03 2.64000E+03 2.86000E+03 3.08000E+03 2.00000E+03 2.20000E+03 2.40000E+03 2.60000E+03 2.80000E+03 
3.25000E+03 3.57500E+03 3.90000E+03 4.22500E+03 4.55000E+03 3.00000E+03 3.30000E+03 3.60000E+03 3.90000E+03 4.20000E+03 
2.75000E+03 3.02500E+03 3.30000E+03 3.57500E+03 3.85000E+03 2.50000E+03 2.75000E+03 3.00000E+03 3.25000E+03 3.50000E+03 
1.00000E+00 1.00000E+00 1.00000E+00 1.00000E+00 1.00000E+00 1.00000E+00 1.00000E+00 1.00000E+00 1.00000E+00 1.00000E+00 
1.00000E+00 1.00000E+00 1.00000E+00 1.00000E+00 1.00000E+00 1.00000E+00 1.00000E+00 1.00000E+00 1.00000E+00 1.00000E+00 
1.00000E+00 1.00000E+00 1.00000E+00 1.00000E+00 1.00000E+00 1.00000E+00 1.00000E+00 1.00000E+00 1.00000E+00 1.00000E+00 
1.00000E+00 1.00000E+00 1.00000E+00 1.00000E+00 1.00000E+00 1.00000E+00 1.00000E+00 1.00000E+00 1.00000E+00 1.00000E+00 
1.10088E-01 1.20039E-01 1.20039E-01 1.30012E-01 1.30012E-01 1.20039E-01 1.20039E-01 1.20039E-01 1.43836E-01 1.30012E-01 
1.20039E-01 1.20039E-01 1.20039E-01 1.37319E-01 1.20039E-01 1.20039E-01 1.20039E-01 1.20039E-01 1.20039E-01 1.20039E-01 
3.70647E+05 3.70647E+05 3.70647E+05 3.70647E+05 3.70647E+05 3.70647E+05 3.70647E+05 3.70647E+05 3.70647E+05 3.70649E+05 
3.70647E+05 3.70647E+05 3.70647E+05 3.70648E+05 3.70649E+05 3.70647E+05 3.70647E+05 3.70648E+05 3.70648E+05 3.70649E+05 
1.99228E+05 1.99257E+05 1.99260E+05 1.99259E+05 1.99259E+05 1.99227E+05 1.99245E+05 1.99259E+05 1.99259E+05 1.99259E+05 
1.99220E+05 1.99234E+05 1.99252E+05 1.99258E+05 1.99258E+05 1.99220E+05 1.99226E+05 1.99247E+05 1.99257E+05 1.99258E+05 
-2.10940E+04 -2.10940E+04 -2.10940E+04 -2.06272E+04 -2.10940E+04 -2.10940E+04 -2.10940E+04 -2.10581E+04 9.22439E+04 -2.06921E+04 
-2.10940E+04 -2.10940E+04 -2.10507E+04 8.86687E+04 -2.10596E+04 -2.10940E+04 -2.10940E+04 -2.10940E+04 -2.10322E+04 -2.10940E+04 
0.00000E+00 0.00000E+00 0.00000E+00 0.00000E+00 0.00000E+00 0.00000E+00 0.00000E+00 0.00000E+00 0.00000E+00 0.00000E+00 
0.00000E+00 0.00000E+00 0.00000E+00 0.00000E+00 0.00000E+00 0.00000E+00 0.00000E+00 0.00000E+00 0.00000E+00 0.00000E+00 
0.00000E+00 0.00000E+00 0.00000E+00 0.00000E+00 0.00000E+00 0.00000E+00 0.00000E+00 0.00000E+00 8.26318E-11 0.00000E+00 
0.00000E+00 0.00000E+00 0.00000E+00 1.38239E-10 0.00000E+00 0.00000E+00 0.00000E+00 0.00000E+00 0.00000E+00 0.00000E+00 
0.00000E+00 0.00000E+00 0.00000E+00 8.42320E-08 0.00000E+00 0.00000E+00 0.00000E+00 2.18104E-08 9.61093E-02 7.24519E-08 
0.00000E+00 0.00000E+00 3.45393E-08 1.25839E-01 2.74138E-08 0.00000E+00 0.00000E+00 0.00000E+00 4.93359E-08 0.00000E+00 
1.00000E+00 1.00000E+00 1.00000E+00 1.00000E+00 1.00000E+00 1.00000E+00 1.00000E+00 1.00000E+00 1.00000E+00 2.00000E+00 
2.00000E+00 1.00000E+00 1.00000E+00 2.00000E+00 2.00000E+00 2.00000E+00 2.00000E+00 2.00000E+00 2.00000E+00 2.00000E+00 
2.00000E+00 1.00000E+00 1.00000E+00 2.00000E+00 4.00000E+00 2.00000E+00 2.00000E+00 1.00000E+00 3.00000E+00 3.00000E+00 
3.00000E+00 2.00000E+00 2.00000E+00 3.00000E+00 3.00000E+00 3.00000E+00 3.00000E+00 2.00000E+00 3.00000E+00 3.00000E+00 
2.00000E+00 3.00000E+00 3.00000E+00 4.00000E+00 4.00000E+00 3.00000E+00 3.00000E+00 3.00000E+00 4.00000E+00 4.00000E+00 
3.00000E+00 3.00000E+00 3.00000E+00 3.00000E+00 3.00000E+00 3.00000E+00 3.00000E+00 3.00000E+00 3.00000E+00 3.00000E+00 
ZONE T = "plot.37", I = 6, J = 5, K = 4, DATAPACKING = BLOCK,
VARLOCATION=(4=CELLCENTERED, 5=CELLCENTERED, 6=CELLCENTERED, 7=CELLCENTERED, 8=CELLCENTERED)
0.000000000E+00 10 21 33 46 60 0.000000000E+00 10 21 33 
46 60 0.000000000E+00 10 21 33 46 60 0.000000000E+00 10 
21 33 46 60 0.000000000E+00 10 21 33 46 60 
0.000000000E+00 10 21 33 46 60 0.000000000E+00 10 21 33 
46 60 0.000000000E+00 10 21 33 46 60 0.000000000E+00 10 
21 33 46 60 0.000000000E+00 10 21 33 46 60 
0.000000000E+00 10 21 33 46 60 0.000000000E+00 10 21 33 
46 60 0.000000000E+00 10 21 33 46 60 0.000000000E+00 10 
21 33 46 60 0.000000000E+00 10 21 33 46 60 
0.000000000E+00 10 21 33 46 60 0.000000000E+00 10 21 33 
46 60 0.000000000E+00 10 21 33 46 60 0.000000000E+00 10 
21 33 46 60 0.000000000E+00 10 21 33 46 60 
0.000000000E+00 0.000000000E+00 0.000000000E+00 0.000000000E+00 0.000000000E+00 0.000000000E+00 13 13 13 13 
13 13 25 25 25 25 25 25 36 36 
36 36 36 36 46 46 46 46 46 46 
0.000000000E+00 0.000000000E+00 0.000000000E+00 0.000000000E+00 0.000000000E+00 0.000000000E+00 13 13 13 13 
13 13 25 25 25 25 25 25 36 36 
36 36 36 36 46 46 46 46 46 46 
0.000000000E+00 0.000000000E+00 0.000000000E+00 0.000000000E+00 0.000000000E+00 0.000000000E+00 13 13 13 13 
13 13 25 25 25 25 25 25 36 36 
36 36 36 36 46 46 46 46 46 46 
0.000000000E+00 0.000000000E+00 0.000000000E+00 0.000000000E+00 0.000000000E+00 0.000000000E+00 13 13 13 13 
13 13 25 25 25 25 25 25 36 36 
36 36 36 36 46 46 46 46 46 46 
0.000000000E+00 0.000000000E+00 0.000000000E+00 0.000000000E+00 0.000000000E+00 0.000000000E+00 0.000000000E+00 0.000000000E+00 0.000000000E+00 0.000000000E+00 
0.000000000E+00 0.000000000E+00 0.000000000E+00 0.000000000E+00 0.000000000E+00 0.000000000E+00 0.000000000E+00 0.000000000E+00 0.000000000E+00 0.000000000E+00 
0.000000000E+00 0.000000000E+00 0.000000000E+00 0.000000000E+00 0.000000000E+00 0.000000000E+00 0.000000000E+00 0.000000000E+00 0.000000000E+00 0.000000000E+00 
15 15 15 15 15 15 15 15 15 15 
15 15 15 15 15 15 15 15 15 15 
15 15 15 15 15 15 15 15 15 15 
35 35 35 35 35 35 35 35 35 35 
35 35 35 35 35 35 35 35 35 35 
35 35 35 35 35 35 35 35 35 35 
60 60 60 60 60 60 60 60 60 60 
60 60 60 60 60 60 60 60 60 60 
60 60 60 60 60 60 60 60 60 60 
1.95000E+03 2.14500E+03 2.34000E+03 2.53500E+03 2.73000E+03 1.80000E+03 1.98000E+03 2.16000E+03 2.34000E+03 2.52000E+03 
1.65000E+03 1.81500E+03 1.98000E+03 2.14500E+03 2.31000E+03 1.50000E+03 1.65000E+03 1.80000E+03 1.95000E+03 2.10000E+03 
2.60000E+03 2.86000E+03 3.12000E+03 3.38000E+03 3.64000E+03 2.40000E+03 2.64000E+03 2.88000E+03 3.12000E+03 3.36000E+03 
2.20000E+03 2.42000E+03 2.64000E+03 2.86000E+03 3.08000E+03 2.00000E+03 2.20000E+03 2.40000E+03 2.60000E+03 2.80000E+03 
3.25000E+03 3.57500E+03 3.90000E+03 4.22500E+03 4.55000E+03 3.00000E+03 3.30000E+03 3.60000E+03 3.90000E+03 4.20000E+03 
2.75000E+03 3.02500E+03 3.30000E+03 3.57500E+03 3.85000E+03 2.50000E+03 2.75000E+03 3.00000E+03 3.25000E+03 3.50000E+03 
1.00000E+00 1.00000E+00 1.00000E+00 1.00000E+00 1.00000E+00 1.00000E+00 1.00000E+00 1.00000E+00 1.00000E+00 1.00000E+00 
1.00000E+00 1.00000E+00 1.00000E+00 1.00000E+00 1.00000E+00 1.00000E+00 1.00000E+00 1.00000E+00 1.00000E+00 1.00000E+00 
1.00000E+00 1.00000E+00 1.00000E+00 1.00000E+00 1.00000E+00 1.00000E+00 1.00000E+00 1.00000E+00 1.00000E+00 1.00000E+00 
1.00000E+00 1.00000E+00 1.00000E+00 1.00000E+00 1.00000E+00 1.00000E+00 1.00000E+00 1.00000E+00 1.00000E+00 1.00000E+00 
1.10088E-01 1.20039E-01 1.20039E-01 1.31303E-01 1.30012E-01 1.20039E-01 1.20039E-01 1.20676E-01 2.65081E-01 1.31174E-01 
1.20039E-01 1.20039E-01 1.20784E-01 2.90569E-01 1.20668E-01 1.20039E-01 1.20039E-01 1.20039E-01 1.21002E-01 1.20039E-01 
3.70647E+05 3.70647E+05 3.70648E+05 3.70649E+05 3.70651E+05 3.70647E+05 3.70647E+05 3.70649E+05 3.70652E+05 3.70655E+05 
3.70647E+05 3.70648E+05 3.70650E+05 3.70655E+05 3.70656E+05 3.70647E+05 3.70649E+05 3.70651E+05 3.70654E+05 3.70656E+05 
1.99219E+05 1.99231E+05 1.99248E+05 1.99257E+05 1.99258E+05 1.99219E+05 1.99224E+05 1.99242E+05 1.99262E+05 1.99258E+05 
1.99219E+05 1.99225E+05 1.99243E+05 1.99260E+05 1.99258E+05 1.99219E+05 1.99222E+05 1.99239E+05 1.99257E+05 1.99257E+05 
-2.10940E+04 -2.10940E+04 -2.10940E+04 7.95418E+04 -2.10935E+04 -2.10940E+04 -2.10940E+04 5.90562E+04 9.74199E+04 7.86806E+04 
-2.10940E+04 -2.10940E+04 6.13202E+04 9.59172E+04 5.88842E+04 -2.10940E+04 -2.10940E+04 -2.10940E+04 6.48151E+04 -2.10940E+04 
0.00000E+00 0.00000E+00 0.00000E+00 0.00000E+00 0.00000E+00 0.00000E+00 0.00000E+00 0.00000E+00 3.93858E-12 0.00000E+00 
0.00000E+00 0.00000E+00 0.00000E+00 4.99588E-11 0.00000E+00 0.00000E+00 0.00000E+00 0.00000E+00 0.00000E+00 0.00000E+00 
0.00000E+00 0.00000E+00 0.00000E+00 7.03314E-11 0.00000E+00 0.00000E+00 0.00000E+00 3.82227E-11 2.42782E-05 3.00929E-10 
0.00000E+00 0.00000E+00 5.50864E-10 3.76318E-05 3.11664E-10 0.00000E+00 0.00000E+00 0.00000E+00 8.61540E-10 0.00000E+00 
0.00000E+00 0.00000E+00 4.76053E-13 4.54300E-03 3.93362E-12 0.00000E+00 0.00000E+00 2.46022E-03 5.15962E-01 4.09280E-03 
0.00000E+00 0.00000E+00 3.33135E-03 5.90468E-01 2.82159E-03 0.00000E+00 0.00000E+00 0.00000E+00 4.29447E-03 0.00000E+00 
1.00000E+00 1.00000E+00 1.00000E+00 1.00000E+00 1.00000E+00 1.00000E+00 1.00000E+00 1.00000E+00 1.00000E+00 2.00000E+00 
2.00000E+00 1.00000E+00 1.00000E+00 2.00000E+00 2.00000E+00 2.00000E+00 2.00000E+00 2.00000E+00 2.00000E+00 2.00000E+00 
2.00000E+00 1.00000E+00 1.00000E+00 2.00000E+00 4.00000E+00 2.00000E+00 2.00000E+00 1.00000E+00 3.00000E+00 3.00000E+00 
3.00000E+00 2.00000E+00 2.00000E+00 3.00000E+00 3.00000E+00 3.00000E+00 3.00000E+00 2.00000E+00 3.00000E+00 3.00000E+00 
2.00000E+00 3.00000E+00 3.00000E+00 4.00000E+00 4.00000E+00 3.00000E+00 3.00000E+00 3.00000E+00 4.00000E+00 4.00000E+00 
3.00000E+00 3.00000E+00 3.00000E+00 3.00000E+00 3.00000E+00 3.00000E+00 3.00000E+00 3.00000E+00 3.00000E+00 3.00000E+00 
ZONE T = "plot.49", I = 6, J = 5, K = 4, DATAPACKING = BLOCK,
VARLOCATION=(4=CELLCENTERED, 5=CELLCENTERED, 6=CELLCENTERED, 7=CELLCENTERED, 8=CELLCENTERED)
0.000000000E+00 10 21 33 46 60 0.000000000E+00 10 21 33 
46 60 0.000000000E+00 10 21 33 46 60 0.000000000E+00 10 
21 33 46 60 0.000000000E+00 10 21 33 46 60 
0.000000000E+00 10 21 33 46 60 0.000000000E+00 10 21 33 
46 60 0.000000000E+00 10 21 33 46 60 0.000000000E+00 10 
21 33 46 60 0.000000000E+00 10 21 33 46 60 
0.000000000E+00 10 21 33 46 60 0.000000000E+00 10 21 33 
46 60 0.000000000E+00 10 21 33 46 60 0.000000000E+00 10 
21 33 46 60 0.000000000E+00 10 21 33 46 60 
0.000000000E+00 10 21 33 46 60 0.000000000E+00 10 21 33 
46 60 0.000000000E+00 10 21 33 46 60 0.000000000E+00 10 
21 33 46 60 0.000000000E+00 10 21 33 46 60 
0.000000000E+00 0.000000000E+00 0.000000000E+00 0.000000000E+00 0.000000000E+00 0.000000000E+00 13 13 13 13 
13 13 25 25 25 25 25 25 36 36 
36 36 36 36 46 46 46 46 46 46 
0.000000000E+00 0.000000000E+00 0.000000000E+00 0.000000000E+00 0.000000000E+00 0.000000000E+00 13 13 13 13 
13 13 25 25 25 25 25 25 36 36 
36 36 36 36 46 46 46 46 46 46 
0.000000000E+00 0.000000000E+00 0.000000000E+00 0.000000000E+00 0.000000000E+00 0.000000000E+00 13 13 13 13 
13 13 25 25 25 25 25 25 36 36 
36 36 36 36 46 46 46 46 46 46 
0.000000000E+00 0.000000000E+00 0.000000000E+00 0.000000000E+00 0.000000000E+00 0.000000000E+00 13 13 13 13 
13 13 25 25 25 25 25 25 36 36 
36 36 36 36 46 46 46 46 46 46 
0.000000000E+00 0.000000000E+00 0.000000000E+00 0.000000000E+00 0.000000000E+00 0.000000000E+00 0.000000000E+00 0.000000000E+00 0.000000000E+00 0.000000000E+00 
0.000000000E+00 0.000000000E+00 0.000000000E+00 0.000000000E+00 0.000000000E+00 0.000000000E+00 0.000000000E+00 0.000000000E+00 0.000000000E+00 0.000000000E+00 
0.000000000E+00 0.000000000E+00 0.000000000E+00 0.000000000E+00 0.000000000E+00 0.000000000E+00 0.000000000E+00 0.000000000E+00 0.000000000E+00 0.000000000E+00 
15 15 15 15 15 15 15 15 15 15 
15 15 15 15 15 15 15 15 15 15 
15 15 15 15 15 15 15 15 15 15 
35 35 35 35 35 35 35 35 35 35 
35 35 35 35 35 35 35 35 35 35 
35 35 35 35 35 35 35 35 35 35 
60 60 60 60 60 60 60 60 60 60 
60 60 60 60 60 60 60 60 60 60 
60 60 60 60 60 60 60 60 60 60 
1.95000E+03 2.14500E+03 2.34000E+03 2.53500E+03 2.73000E+03 1.80000E+03 1.98000E+03 2.16000E+03 2.34000E+03 2.52000E+03 
1.65000E+03 1.81500E+03 1.98000E+03 2.14500E+03 2.31000E+03 1.50000E+03 1.65000E+03 1.80000E+03 1.95000E+03 2.10000E+03 
2.60000E+03 2.86000E+03 3.12000E+03 3.38000E+03 3.64000E+03 2.40000E+03 2.64000E+03 2.88000E+03 3.12000E+03 3.36000E+03 
2.20000E+03 2.42000E+03 2.64000E+03 2.86000E+03 3.08000E+03 2.00000E+03 2.20000E+03 2.40000E+03 2.60000E+03 2.80000E+03 
3.25000E+03 3.57500E+03 3.90000E+03 4.22500E+03 4.55000E+03 3.00000E+03 3.30000E+03 3.60000E+03 3.90000E+03 4.20000E+03 
2.75000E+03 3.02500E+03 3.30000E+03 3.57500E+03 3.85000E+03 2.50000E+03 2.75000E+03 3.00000E+03 3.25000E+03 3.50000E+03 
1.00000E+00 1.00000E+00 1.00000E+00 1.00000E+00 1.00000E+00 1.00000E+00 1.00000E+00 1.00000E+00 1.00000E+00 1.00000E+00 
1.00000E+00 1.00000E+00 1.00000E+00 1.00000E+00 1.00000E+00 1.00000E+00 1.00000E+00 1.00000E+00 1.00000E+00 1.00000E+00 
1.00000E+00 1.00000E+00 1.00000E+00 1.00000E+00 1.00000E+00 1.00000E+00 1.00000E+00 1.00000E+00 1.00000E+00 1.00000E+00 
1.00000E+00 1.00000E+00 1.00000E+00 1.00000E+00 1.00000E+00 1.00000E+00 1.00000E+00 1.00000E+00 1.00000E+00 1.00000E+00 
1.10088E-01 1.20042E-01 1.34790E-01 3.67693E-01 1.62016E-01 1.20039E-01 1.24395E-01 3.04528E-01 6.91563E-01 3.55135E-01 
1.20039E-01 1.27995E-01 3.50027E-01 9.16999E-01 3.29090E-01 1.20039E-01 1.20042E-01 1.36140E-01 3.94589E-01 1.33303E-01 
3.71194E+05 3.72513E+05 3.74343E+05 3.76639E+05 3.78495E+05 3.71190E+05 3.72720E+05 3.75009E+05 3.78123E+05 3.80135E+05 
3.71010E+05 3.72883E+05 3.76078E+05 3.79296E+05 3.80049E+05 3.71435E+05 3.73542E+05 3.76116E+05 3.78788E+05 3.79904E+05 
1.99592E+05 2.02724E+05 2.11181E+05 2.18718E+05 2.18970E+05 1.99901E+05 2.01966E+05 2.10482E+05 2.19474E+05 2.19027E+05 
1.99621E+05 2.02616E+05 2.11775E+05 2.19160E+05 2.18868E+05 1.99883E+05 2.01541E+05 2.09883E+05 2.18324E+05 2.18622E+05 
-2.07984E+04 -1.72171E+04 8.79039E+04 9.81574E+04 9.46693E+04 -2.04883E+04 8.02524E+04 9.60731E+04 9.90212E+04 9.80931E+04 
-2.06813E+04 8.44553E+04 9.64862E+04 9.82763E+04 9.63115E+04 -2.05061E+04 -1.73770E+04 8.83328E+04 9.67945E+04 8.73646E+04 
0.00000E+00 4.83122E-12 3.30407E-09 9.98712E-07 5.32469E-08 2.25993E-12 1.12492E-09 4.86704E-07 1.10927E-04 2.69579E-05 
8.88696E-10 7.43604E-08 1.19190E-05 1.71207E-03 3.01220E-05 6.39581E-10 5.48381E-08 4.34821E-06 1.35367E-04 6.21874E-07 
4.21645E-10 4.43018E-08 9.59502E-06 1.34029E-03 2.84936E-05 2.26225E-07 1.74880E-05 1.45912E-03 1.26656E-01 5.27353E-03 
4.58710E-05 1.05012E-03 1.94854E-02 2.40120E-01 5.71341E-03 2.30985E-05 2.06072E-04 1.98094E-03 2.38731E-02 1.33287E-04 
0.00000E+00 6.06417E-07 5.83733E-02 5.94947E-01 1.04070E-01 2.15236E-09 1.73534E-02 5.45504E-01 9.47283E-01 5.77797E-01 
4.27718E-08 3.48103E-02 6.11167E-01 9.56153E-01 5.81648E-01 2.70269E-11 1.02620E-06 6.86650E-02 6.47824E-01 5.69713E-02 
1.00000E+00 1.00000E+00 1.00000E+00 1.00000E+00 1.00000E+00 1.00000E+00 1.00000E+00 1.00000E+00 1.00000E+00 2.00000E+00 
2.00000E+00 1.00000E+00 1.00000E+00 2.00000E+00 2.00000E+00 2.00000E+00 2.00000E+00 2.00000E+00 2.00000E+00 2.00000E+00 
2.00000E+00 1.00000E+00 1.00000E+00 2.00000E+00 4.00000E+00 2.00000E+00 2.00000E+00 1.00000E+00 3.00000E+00 3.00000E+00 
3.00000E+00 2.00000E+00 2.00000E+00 3.00000E+00 3.00000E+00 3.00000E+00 3.00000E+00 2.00000E+00 3.00000E+00 3.00000E+00 
2.00000E+00 3.00000E+00 3.00000E+00 4.00000E+00 4.00000E+00 3.00000E+00 3.00000E+00 3.00000E+00 4.00000E+00 4.00000E+00 
3.00000E+00 3.00000E+00 3.00000E+00 3.00000E+00 3.00000E+00 3.00000E+00 3.00000E+00 3.00000E+00 3.00000E+00 3.00000E+00 
ZONE T = "plot.74", I = 6, J = 5, K = 4, DATAPACKING = BLOCK,
VARLOCATION=(4=CELLCENTERED, 5=CELLCENTERED, 6=CELLCENTERED, 7=CELLCENTERED, 8=CELLCENTERED)
0.000000000E+00 10 21 33 46 60 0.000000000E+00 10 21 33 
46 60 0.000000000E+00 10 21 33 46 60 0.000000000E+00 10 
21 33 46 60 0.000000000E+00 10 21 33 46 60 
0.000000000E+00 10 21 33 46 60 0.000000000E+00 10 21 33 
46 60 0.000000000E+00 10 21 33 46 60 0.000000000E+00 10 