TITLE = "  2.0000E-09 [y]"
VARIABLES="X [m]","Y [m]","Z [m]","P [Pa]","sl","pH","Na+_tot_m","Ca++_tot_m","Fe++_tot_m","K+_tot_m","Al+++_tot_m","H+_tot_m","N2(aq)_tot_m","NO3-_tot_m","HCO3-_tot_m","Cl-_tot_m","SO4--_tot_m","HPO4--_tot_m","F-_tot_m","SiO2(aq)_tot_m","UO2++_tot_m","O2(aq)_tot_m","Tracer_tot_m","Quartz_vf","Chalcedony_vf","Calcite_vf","Ferrihydrite_vf","K-Feldspar_vf","Kaolinite_vf","Gibbsite_vf","Schoepite_vf","(UO2)3(PO4)2.4H2O_vf","Soddyite_vf","Jurbanite_vf","Quartz_rt","Chalcedony_rt","Calcite_rt","Ferrihydrite_rt","K-Feldspar_rt","Kaolinite_rt","Gibbsite_rt","Schoepite_rt","(UO2)3(PO4)2.4H2O_rt","Soddyite_rt","Jurbanite_rt",">SiOH",">FeOH",">AlOH",">SiOUO3H3++",">SiOUO3H2+",">SiOUO3H",">SiOUO3-",">SiOUO2(OH)2-",">FeOHUO3",">FeOHUO2++",">AlOUO2+","Na+_kd","Ca++_kd","Fe++_kd","K+_kd","Al+++_kd","H+_kd","N2(aq)_kd","NO3-_kd","HCO3-_kd","Cl-_kd","SO4--_kd","HPO4--_kd","F-_kd","SiO2(aq)_kd","UO2++_kd","O2(aq)_kd","Tracer_kd","Na+_total_sorb","Ca++_total_sorb","Fe++_total_sorb","K+_total_sorb","Al+++_total_sorb","H+_total_sorb","N2(aq)_total_sorb","NO3-_total_sorb","HCO3-_total_sorb","Cl-_total_sorb","SO4--_total_sorb","HPO4--_total_sorb","F-_total_sorb","SiO2(aq)_total_sorb","UO2++_total_sorb","O2(aq)_total_sorb","Tracer_total_sorb","Material_ID"
ZONE T= "  2.0000E-09", I=  15, J=   2, K=   6, VARLOCATION=([4-91]=CELLCENTERED), DATAPACKING=BLOCK
 0.000000E+00  1.000000E+02  2.000000E+02  3.000000E+02  4.000000E+02  5.000000E+02  6.000000E+02  7.000000E+02  8.000000E+02  9.000000E+02 
 1.000000E+03  1.100000E+03  1.200000E+03  1.300000E+03  1.400000E+03  0.000000E+00  1.000000E+02  2.000000E+02  3.000000E+02  4.000000E+02 
 5.000000E+02  6.000000E+02  7.000000E+02  8.000000E+02  9.000000E+02  1.000000E+03  1.100000E+03  1.200000E+03  1.300000E+03  1.400000E+03 
 0.000000E+00  1.000000E+02  2.000000E+02  3.000000E+02  4.000000E+02  5.000000E+02  6.000000E+02  7.000000E+02  8.000000E+02  9.000000E+02 
 1.000000E+03  1.100000E+03  1.200000E+03  1.300000E+03  1.400000E+03  0.000000E+00  1.000000E+02  2.000000E+02  3.000000E+02  4.000000E+02 
 5.000000E+02  6.000000E+02  7.000000E+02  8.000000E+02  9.000000E+02  1.000000E+03  1.100000E+03  1.200000E+03  1.300000E+03  1.400000E+03 
 0.000000E+00  1.000000E+02  2.000000E+02  3.000000E+02  4.000000E+02  5.000000E+02  6.000000E+02  7.000000E+02  8.000000E+02  9.000000E+02 
 1.000000E+03  1.100000E+03  1.200000E+03  1.300000E+03  1.400000E+03  0.000000E+00  1.000000E+02  2.000000E+02  3.000000E+02  4.000000E+02 
 5.000000E+02  6.000000E+02  7.000000E+02  8.000000E+02  9.000000E+02  1.000000E+03  1.100000E+03  1.200000E+03  1.300000E+03  1.400000E+03 
 0.000000E+00  1.000000E+02  2.000000E+02  3.000000E+02  4.000000E+02  5.000000E+02  6.000000E+02  7.000000E+02  8.000000E+02  9.000000E+02 
 1.000000E+03  1.100000E+03  1.200000E+03  1.300000E+03  1.400000E+03  0.000000E+00  1.000000E+02  2.000000E+02  3.000000E+02  4.000000E+02 
 5.000000E+02  6.000000E+02  7.000000E+02  8.000000E+02  9.000000E+02  1.000000E+03  1.100000E+03  1.200000E+03  1.300000E+03  1.400000E+03 
 0.000000E+00  1.000000E+02  2.000000E+02  3.000000E+02  4.000000E+02  5.000000E+02  6.000000E+02  7.000000E+02  8.000000E+02  9.000000E+02 
 1.000000E+03  1.100000E+03  1.200000E+03  1.300000E+03  1.400000E+03  0.000000E+00  1.000000E+02  2.000000E+02  3.000000E+02  4.000000E+02 
 5.000000E+02  6.000000E+02  7.000000E+02  8.000000E+02  9.000000E+02  1.000000E+03  1.100000E+03  1.200000E+03  1.300000E+03  1.400000E+03 
 0.000000E+00  1.000000E+02  2.000000E+02  3.000000E+02  4.000000E+02  5.000000E+02  6.000000E+02  7.000000E+02  8.000000E+02  9.000000E+02 
 1.000000E+03  1.100000E+03  1.200000E+03  1.300000E+03  1.400000E+03  0.000000E+00  1.000000E+02  2.000000E+02  3.000000E+02  4.000000E+02 
 5.000000E+02  6.000000E+02  7.000000E+02  8.000000E+02  9.000000E+02  1.000000E+03  1.100000E+03  1.200000E+03  1.300000E+03  1.400000E+03 
 0.000000E+00  0.000000E+00  0.000000E+00  0.000000E+00  0.000000E+00  0.000000E+00  0.000000E+00  0.000000E+00  0.000000E+00  0.000000E+00 
 0.000000E+00  0.000000E+00  0.000000E+00  0.000000E+00  0.000000E+00  1.000000E+00  1.000000E+00  1.000000E+00  1.000000E+00  1.000000E+00 
 1.000000E+00  1.000000E+00  1.000000E+00  1.000000E+00  1.000000E+00  1.000000E+00  1.000000E+00  1.000000E+00  1.000000E+00  1.000000E+00 
 0.000000E+00  0.000000E+00  0.000000E+00  0.000000E+00  0.000000E+00  0.000000E+00  0.000000E+00  0.000000E+00  0.000000E+00  0.000000E+00 
 0.000000E+00  0.000000E+00  0.000000E+00  0.000000E+00  0.000000E+00  1.000000E+00  1.000000E+00  1.000000E+00  1.000000E+00  1.000000E+00 
 1.000000E+00  1.000000E+00  1.000000E+00  1.000000E+00  1.000000E+00  1.000000E+00  1.000000E+00  1.000000E+00  1.000000E+00  1.000000E+00 
 0.000000E+00  0.000000E+00  0.000000E+00  0.000000E+00  0.000000E+00  0.000000E+00  0.000000E+00  0.000000E+00  0.000000E+00  0.000000E+00 
 0.000000E+00  0.000000E+00  0.000000E+00  0.000000E+00  0.000000E+00  1.000000E+00  1.000000E+00  1.000000E+00  1.000000E+00  1.000000E+00 
 1.000000E+00  1.000000E+00  1.000000E+00  1.000000E+00  1.000000E+00  1.000000E+00  1.000000E+00  1.000000E+00  1.000000E+00  1.000000E+00 
 0.000000E+00  0.000000E+00  0.000000E+00  0.000000E+00  0.000000E+00  0.000000E+00  0.000000E+00  0.000000E+00  0.000000E+00  0.000000E+00 
 0.000000E+00  0.000000E+00  0.000000E+00  0.000000E+00  0.000000E+00  1.000000E+00  1.000000E+00  1.000000E+00  1.000000E+00  1.000000E+00 
 1.000000E+00  1.000000E+00  1.000000E+00  1.000000E+00  1.000000E+00  1.000000E+00  1.000000E+00  1.000000E+00  1.000000E+00  1.000000E+00 
 0.000000E+00  0.000000E+00  0.000000E+00  0.000000E+00  0.000000E+00  0.000000E+00  0.000000E+00  0.000000E+00  0.000000E+00  0.000000E+00 
 0.000000E+00  0.000000E+00  0.000000E+00  0.000000E+00  0.000000E+00  1.000000E+00  1.000000E+00  1.000000E+00  1.000000E+00  1.000000E+00 
 1.000000E+00  1.000000E+00  1.000000E+00  1.000000E+00  1.000000E+00  1.000000E+00  1.000000E+00  1.000000E+00  1.000000E+00  1.000000E+00 
 0.000000E+00  0.000000E+00  0.000000E+00  0.000000E+00  0.000000E+00  0.000000E+00  0.000000E+00  0.000000E+00  0.000000E+00  0.000000E+00 
 0.000000E+00  0.000000E+00  0.000000E+00  0.000000E+00  0.000000E+00  1.000000E+00  1.000000E+00  1.000000E+00  1.000000E+00  1.000000E+00 
 1.000000E+00  1.000000E+00  1.000000E+00  1.000000E+00  1.000000E+00  1.000000E+00  1.000000E+00  1.000000E+00  1.000000E+00  1.000000E+00 
 0.000000E+00  0.000000E+00  0.000000E+00  0.000000E+00  0.000000E+00  0.000000E+00  0.000000E+00  0.000000E+00  0.000000E+00  0.000000E+00 
 0.000000E+00  0.000000E+00  0.000000E+00  0.000000E+00  0.000000E+00  0.000000E+00  0.000000E+00  0.000000E+00  0.000000E+00  0.000000E+00 
 0.000000E+00  0.000000E+00  0.000000E+00  0.000000E+00  0.000000E+00  0.000000E+00  0.000000E+00  0.000000E+00  0.000000E+00  0.000000E+00 
 1.000000E+01  1.000000E+01  1.000000E+01  1.000000E+01  1.000000E+01  1.000000E+01  1.000000E+01  1.000000E+01  1.000000E+01  1.000000E+01 
 1.000000E+01  1.000000E+01  1.000000E+01  1.000000E+01  1.000000E+01  1.000000E+01  1.000000E+01  1.000000E+01  1.000000E+01  1.000000E+01 
 1.000000E+01  1.000000E+01  1.000000E+01  1.000000E+01  1.000000E+01  1.000000E+01  1.000000E+01  1.000000E+01  1.000000E+01  1.000000E+01 
 2.000000E+01  2.000000E+01  2.000000E+01  2.000000E+01  2.000000E+01  2.000000E+01  2.000000E+01  2.000000E+01  2.000000E+01  2.000000E+01 
 2.000000E+01  2.000000E+01  2.000000E+01  2.000000E+01  2.000000E+01  2.000000E+01  2.000000E+01  2.000000E+01  2.000000E+01  2.000000E+01 
 2.000000E+01  2.000000E+01  2.000000E+01  2.000000E+01  2.000000E+01  2.000000E+01  2.000000E+01  2.000000E+01  2.000000E+01  2.000000E+01 
 3.000000E+01  3.000000E+01  3.000000E+01  3.000000E+01  3.000000E+01  3.000000E+01  3.000000E+01  3.000000E+01  3.000000E+01  3.000000E+01 
 3.000000E+01  3.000000E+01  3.000000E+01  3.000000E+01  3.000000E+01  3.000000E+01  3.000000E+01  3.000000E+01  3.000000E+01  3.000000E+01 
 3.000000E+01  3.000000E+01  3.000000E+01  3.000000E+01  3.000000E+01  3.000000E+01  3.000000E+01  3.000000E+01  3.000000E+01  3.000000E+01 
 4.000000E+01  4.000000E+01  4.000000E+01  4.000000E+01  4.000000E+01  4.000000E+01  4.000000E+01  4.000000E+01  4.000000E+01  4.000000E+01 
 4.000000E+01  4.000000E+01  4.000000E+01  4.000000E+01  4.000000E+01  4.000000E+01  4.000000E+01  4.000000E+01  4.000000E+01  4.000000E+01 
 4.000000E+01  4.000000E+01  4.000000E+01  4.000000E+01  4.000000E+01  4.000000E+01  4.000000E+01  4.000000E+01  4.000000E+01  4.000000E+01 
 5.000000E+01  5.000000E+01  5.000000E+01  5.000000E+01  5.000000E+01  5.000000E+01  5.000000E+01  5.000000E+01  5.000000E+01  5.000000E+01 
 5.000000E+01  5.000000E+01  5.000000E+01  5.000000E+01  5.000000E+01  5.000000E+01  5.000000E+01  5.000000E+01  5.000000E+01  5.000000E+01 
 5.000000E+01  5.000000E+01  5.000000E+01  5.000000E+01  5.000000E+01  5.000000E+01  5.000000E+01  5.000000E+01  5.000000E+01  5.000000E+01 
 2.971033E+05  2.969128E+05  2.969126E+05  2.969126E+05  2.969126E+05  2.969126E+05  2.969126E+05  2.969126E+05  2.969126E+05  2.969126E+05
 2.969126E+05  2.969126E+05  2.969125E+05  2.968173E+05  1.993073E+05  1.991168E+05  1.991167E+05  1.991167E+05  1.991167E+05  1.991167E+05
 1.991167E+05  1.991167E+05  1.991167E+05  1.991167E+05  1.991167E+05  1.991167E+05  1.991166E+05  1.990216E+05  1.015151E+05  1.013252E+05
 1.013250E+05  1.013250E+05  1.013250E+05  1.013250E+05  1.013250E+05  1.013250E+05  1.013250E+05  1.013250E+05  1.013250E+05  1.013250E+05
 1.013249E+05  1.013245E+05  3.537635E+03  3.537635E+03  3.537635E+03  3.537635E+03  3.537635E+03  3.537635E+03  3.537635E+03  3.537635E+03
 3.537635E+03  3.537635E+03  3.537635E+03  3.537635E+03  3.537635E+03  3.537635E+03 -9.424543E+04 -9.424543E+04 -9.424543E+04 -9.424543E+04
-9.424543E+04 -9.424540E+04 -9.424540E+04 -9.424543E+04 -9.424543E+04 -9.424543E+04 -9.424543E+04 -9.424543E+04 -9.424543E+04 -9.424543E+04
 1.000000E+00  1.000000E+00  1.000000E+00  1.000000E+00  1.000000E+00  1.000000E+00  1.000000E+00  1.000000E+00  1.000000E+00  1.000000E+00
 1.000000E+00  1.000000E+00  1.000000E+00  1.000000E+00  1.000000E+00  1.000000E+00  1.000000E+00  1.000000E+00  1.000000E+00  1.000000E+00
 1.000000E+00  1.000000E+00  1.000000E+00  1.000000E+00  1.000000E+00  1.000000E+00  1.000000E+00  1.000000E+00  1.000000E+00  1.000000E+00
 1.000000E+00  1.000000E+00  1.000000E+00  1.000000E+00  1.000000E+00  1.000000E+00  1.000000E+00  1.000000E+00  1.000000E+00  1.000000E+00
 1.000000E+00  1.000000E+00  5.279764E-01  5.279764E-01  5.279764E-01  5.279764E-01  5.279764E-01  5.279764E-01  5.279764E-01  5.279764E-01
 5.279764E-01  5.279764E-01  5.279764E-01  5.279764E-01  5.279764E-01  5.279764E-01  4.697466E-01  4.697466E-01  4.697466E-01  4.697466E-01
 4.697466E-01  4.697466E-01  4.697466E-01  4.697466E-01  4.697466E-01  4.697466E-01  4.697466E-01  4.697466E-01  4.697466E-01  4.697466E-01
 7.500036E+00  7.500036E+00  7.500036E+00  7.500036E+00  7.500036E+00  7.500036E+00  7.500036E+00  7.500036E+00  7.500036E+00  7.500036E+00
 7.500036E+00  7.500036E+00  7.500036E+00  7.500036E+00  7.500017E+00  7.500017E+00  7.500017E+00  7.500017E+00  7.500017E+00  7.500017E+00
 7.500017E+00  7.500017E+00  7.500017E+00  7.500017E+00  7.500017E+00  7.500017E+00  7.500017E+00  7.500017E+00  7.499999E+00  7.499999E+00
 7.499999E+00  7.499999E+00  7.499999E+00  7.499999E+00  7.499999E+00  7.499999E+00  7.499999E+00  7.499999E+00  7.499999E+00  7.499999E+00
 7.499999E+00  7.499999E+00  7.499999E+00  7.499999E+00  7.499999E+00  7.499999E+00  7.499999E+00  7.499999E+00  7.499999E+00  7.499999E+00
 7.499999E+00  7.499999E+00  7.499999E+00  7.499999E+00  7.499999E+00  7.499999E+00  7.499999E+00  7.499999E+00  7.499999E+00  7.499999E+00
 7.499999E+00  7.499996E+00  7.499996E+00  7.499999E+00  7.499999E+00  7.499999E+00  7.499999E+00  7.499999E+00  7.499999E+00  7.499999E+00
 9.999120E-06  9.999120E-06  9.999120E-06  9.999120E-06  9.999120E-06  9.999120E-06  9.999120E-06  9.999120E-06  9.999120E-06  9.999120E-06
 9.999120E-06  9.999120E-06  9.999120E-06  9.999121E-06  9.999560E-06  9.999560E-06  9.999560E-06  9.999560E-06  9.999560E-06  9.999560E-06
 9.999560E-06  9.999560E-06  9.999560E-06  9.999560E-06  9.999560E-06  9.999560E-06  9.999560E-06  9.999560E-06  1.000000E-05  1.000000E-05
 1.000000E-05  1.000000E-05  1.000000E-05  1.000000E-05  1.000000E-05  1.000000E-05  1.000000E-05  1.000000E-05  1.000000E-05  1.000000E-05
 1.000000E-05  1.000000E-05  1.000000E-05  1.000000E-05  1.000000E-05  1.000000E-05  1.000000E-05  1.000000E-05  1.000000E-05  1.000000E-05
 1.000000E-05  1.000000E-05  1.000000E-05  1.000000E-05  1.000000E-05  1.000000E-05  1.000000E-05  1.000000E-05  1.000000E-05  1.000000E-05
 1.000000E-05  1.000071E-05  1.000071E-05  1.000000E-05  1.000000E-05  1.000000E-05  1.000000E-05  1.000000E-05  1.000000E-05  1.000000E-05
 9.999119E-06  9.999119E-06  9.999119E-06  9.999119E-06  9.999119E-06  9.999119E-06  9.999119E-06  9.999119E-06  9.999119E-06  9.999119E-06
 9.999119E-06  9.999119E-06  9.999119E-06  9.999119E-06  9.999559E-06  9.999560E-06  9.999560E-06  9.999560E-06  9.999560E-06  9.999560E-06
 9.999560E-06  9.999560E-06  9.999560E-06  9.999560E-06  9.999560E-06  9.999560E-06  9.999560E-06  9.999560E-06  1.000000E-05  1.000000E-05
 1.000000E-05  1.000000E-05  1.000000E-05  1.000000E-05  1.000000E-05  1.000000E-05  1.000000E-05  1.000000E-05  1.000000E-05  1.000000E-05
 1.000000E-05  1.000000E-05  1.000000E-05  1.000000E-05  1.000000E-05  1.000000E-05  1.000000E-05  1.000000E-05  1.000000E-05  1.000000E-05
 1.000000E-05  1.000000E-05  1.000000E-05  1.000000E-05  1.000000E-05  1.000000E-05  1.000000E-05  1.000000E-05  1.000000E-05  1.000000E-05
 1.000000E-05  1.000000E-05  1.000000E-05  1.000000E-05  1.000000E-05  1.000000E-05  1.000000E-05  1.000000E-05  1.000000E-05  1.000000E-05
 8.476289E-08  8.476289E-08  8.476289E-08  8.476289E-08  8.476289E-08  8.476289E-08  8.476289E-08  8.476289E-08  8.476289E-08  8.476289E-08
 8.476289E-08  8.476289E-08  8.476289E-08  8.476289E-08  8.476024E-08  8.476024E-08  8.476024E-08  8.476024E-08  8.476024E-08  8.476024E-08
 8.476024E-08  8.476024E-08  8.476024E-08  8.476024E-08  8.476024E-08  8.476024E-08  8.476024E-08  8.476024E-08  8.475759E-08  8.475759E-08
 8.475759E-08  8.475759E-08  8.475759E-08  8.475759E-08  8.475759E-08  8.475759E-08  8.475759E-08  8.475759E-08  8.475759E-08  8.475759E-08
 8.475759E-08  8.475759E-08  8.475759E-08  8.475759E-08  8.475759E-08  8.475759E-08  8.475759E-08  8.475759E-08  8.475759E-08  8.475759E-08
 8.475759E-08  8.475759E-08  8.475759E-08  8.475759E-08  8.475759E-08  8.475759E-08  8.475759E-08  8.475759E-08  8.475759E-08  8.475759E-08
 8.475759E-08  8.475822E-08  8.475822E-08  8.475759E-08  8.475759E-08  8.475759E-08  8.475759E-08  8.475759E-08  8.475759E-08  8.475759E-08
 1.920971E-04  1.920971E-04  1.920971E-04  1.920971E-04  1.920971E-04  1.920971E-04  1.920971E-04  1.920971E-04  1.920971E-04  1.920971E-04
 1.920971E-04  1.920971E-04  1.920971E-04  1.920971E-04  1.921056E-04  1.921056E-04  1.921056E-04  1.921056E-04  1.921056E-04  1.921056E-04
 1.921056E-04  1.921056E-04  1.921056E-04  1.921056E-04  1.921056E-04  1.921056E-04  1.921056E-04  1.921056E-04  1.921140E-04  1.921140E-04
 1.921140E-04  1.921140E-04  1.921140E-04  1.921140E-04  1.921140E-04  1.921140E-04  1.921140E-04  1.921140E-04  1.921140E-04  1.921140E-04
 1.921140E-04  1.921140E-04  1.921140E-04  1.921140E-04  1.921140E-04  1.921140E-04  1.921140E-04  1.921140E-04  1.921140E-04  1.921140E-04
 1.921140E-04  1.921140E-04  1.921140E-04  1.921140E-04  1.921140E-04  1.921140E-04  1.921140E-04  1.921140E-04  1.921140E-04  1.921140E-04
 1.921140E-04  1.921140E-04  1.921140E-04  1.921140E-04  1.921140E-04  1.921140E-04  1.921140E-04  1.921140E-04  1.921140E-04  1.921140E-04
 6.679651E-09  6.679651E-09  6.679651E-09  6.679651E-09  6.679651E-09  6.679651E-09  6.679651E-09  6.679651E-09  6.679651E-09  6.679651E-09
 6.679651E-09  6.679651E-09  6.679651E-09  6.679651E-09  6.678802E-09  6.678803E-09  6.678803E-09  6.678803E-09  6.678803E-09  6.678803E-09
 6.678803E-09  6.678803E-09  6.678803E-09  6.678803E-09  6.678803E-09  6.678803E-09  6.678803E-09  6.678803E-09  6.677954E-09  6.677954E-09
 6.677954E-09  6.677954E-09  6.677954E-09  6.677954E-09  6.677954E-09  6.677954E-09  6.677954E-09  6.677954E-09  6.677954E-09  6.677954E-09
 6.677954E-09  6.677954E-09  6.677954E-09  6.677954E-09  6.677954E-09  6.677954E-09  6.677954E-09  6.677954E-09  6.677954E-09  6.677954E-09
 6.677954E-09  6.677954E-09  6.677954E-09  6.677954E-09  6.677954E-09  6.677954E-09  6.677954E-09  6.677954E-09  6.677954E-09  6.677954E-09
 6.677954E-09  6.678553E-09  6.678553E-09  6.677954E-09  6.677954E-09  6.677954E-09  6.677954E-09  6.677954E-09  6.677954E-09  6.677954E-09
 1.268053E-05  1.268053E-05  1.268053E-05  1.268053E-05  1.268053E-05  1.268053E-05  1.268053E-05  1.268053E-05  1.268053E-05  1.268053E-05
 1.268053E-05  1.268053E-05  1.268053E-05  1.268053E-05  1.268172E-05  1.268172E-05  1.268172E-05  1.268172E-05  1.268172E-05  1.268172E-05
 1.268172E-05  1.268172E-05  1.268172E-05  1.268172E-05  1.268172E-05  1.268172E-05  1.268172E-05  1.268173E-05  1.268292E-05  1.268292E-05
 1.268292E-05  1.268292E-05  1.268292E-05  1.268292E-05  1.268292E-05  1.268292E-05  1.268292E-05  1.268292E-05  1.268292E-05  1.268292E-05
 1.268292E-05  1.268292E-05  1.268292E-05  1.268292E-05  1.268292E-05  1.268292E-05  1.268292E-05  1.268292E-05  1.268292E-05  1.268292E-05
 1.268292E-05  1.268292E-05  1.268292E-05  1.268292E-05  1.268292E-05  1.268292E-05  1.268292E-05  1.268292E-05  1.268292E-05  1.268292E-05
 1.268292E-05  1.268300E-05  1.268300E-05  1.268292E-05  1.268292E-05  1.268292E-05  1.268292E-05  1.268292E-05  1.268292E-05  1.268292E-05
 9.999120E-06  9.999121E-06  9.999121E-06  9.999121E-06  9.999121E-06  9.999121E-06  9.999121E-06  9.999121E-06  9.999121E-06  9.999121E-06
 9.999121E-06  9.999121E-06  9.999121E-06  9.999121E-06  9.999560E-06  9.999560E-06  9.999560E-06  9.999560E-06  9.999560E-06  9.999560E-06
 9.999560E-06  9.999560E-06  9.999560E-06  9.999560E-06  9.999560E-06  9.999560E-06  9.999560E-06  9.999560E-06  1.000000E-05  1.000000E-05
 1.000000E-05  1.000000E-05  1.000000E-05  1.000000E-05  1.000000E-05  1.000000E-05  1.000000E-05  1.000000E-05  1.000000E-05  1.000000E-05
 1.000000E-05  1.000000E-05  1.000000E-05  1.000000E-05  1.000000E-05  1.000000E-05  1.000000E-05  1.000000E-05  1.000000E-05  1.000000E-05
 1.000000E-05  1.000000E-05  1.000000E-05  1.000000E-05  1.000000E-05  1.000000E-05  1.000000E-05  1.000000E-05  1.000000E-05  1.000000E-05
 1.000000E-05  1.000003E-05  1.000003E-05  1.000000E-05  1.000000E-05  1.000000E-05  1.000000E-05  1.000000E-05  1.000000E-05  1.000000E-05
 9.999120E-06  9.999121E-06  9.999121E-06  9.999121E-06  9.999121E-06  9.999121E-06  9.999121E-06  9.999121E-06  9.999121E-06  9.999121E-06
 9.999121E-06  9.999121E-06  9.999121E-06  9.999121E-06  9.999560E-06  9.999560E-06  9.999560E-06  9.999560E-06  9.999560E-06  9.999560E-06
 9.999560E-06  9.999560E-06  9.999560E-06  9.999560E-06  9.999560E-06  9.999560E-06  9.999560E-06  9.999560E-06  1.000000E-05  1.000000E-05
 1.000000E-05  1.000000E-05  1.000000E-05  1.000000E-05  1.000000E-05  1.000000E-05  1.000000E-05  1.000000E-05  1.000000E-05  1.000000E-05
 1.000000E-05  1.000000E-05  1.000000E-05  1.000000E-05  1.000000E-05  1.000000E-05  1.000000E-05  1.000000E-05  1.000000E-05  1.000000E-05
 1.000000E-05  1.000000E-05  1.000000E-05  1.000000E-05  1.000000E-05  1.000000E-05  1.000000E-05  1.000000E-05  1.000000E-05  1.000000E-05
 1.000000E-05  1.000072E-05  1.000072E-05  1.000000E-05  1.000000E-05  1.000000E-05  1.000000E-05  1.000000E-05  1.000000E-05  1.000000E-05
 2.099669E-04  2.099669E-04  2.099669E-04  2.099669E-04  2.099669E-04  2.099669E-04  2.099669E-04  2.099669E-04  2.099669E-04  2.099669E-04
 2.099669E-04  2.099669E-04  2.099669E-04  2.099669E-04  2.099767E-04  2.099767E-04  2.099767E-04  2.099767E-04  2.099767E-04  2.099767E-04
 2.099767E-04  2.099767E-04  2.099767E-04  2.099767E-04  2.099767E-04  2.099767E-04  2.099767E-04  2.099767E-04  2.099865E-04  2.099865E-04
 2.099865E-04  2.099865E-04  2.099865E-04  2.099865E-04  2.099865E-04  2.099865E-04  2.099865E-04  2.099865E-04  2.099865E-04  2.099865E-04
 2.099865E-04  2.099865E-04  2.099865E-04  2.099865E-04  2.099865E-04  2.099865E-04  2.099865E-04  2.099865E-04  2.099865E-04  2.099865E-04
 2.099865E-04  2.099865E-04  2.099865E-04  2.099865E-04  2.099865E-04  2.099865E-04  2.099865E-04  2.099865E-04  2.099865E-04  2.099865E-04
 2.099865E-04  2.099865E-04  2.099865E-04  2.099865E-04  2.099865E-04  2.099865E-04  2.099865E-04  2.099865E-04  2.099865E-04  2.099865E-04
 9.999120E-06  9.999121E-06  9.999121E-06  9.999121E-06  9.999121E-06  9.999121E-06  9.999121E-06  9.999121E-06  9.999121E-06  9.999121E-06
 9.999121E-06  9.999121E-06  9.999121E-06  9.999121E-06  9.999560E-06  9.999560E-06  9.999560E-06  9.999560E-06  9.999560E-06  9.999560E-06
 9.999560E-06  9.999560E-06  9.999560E-06  9.999560E-06  9.999560E-06  9.999560E-06  9.999560E-06  9.999560E-06  1.000000E-05  1.000000E-05
 1.000000E-05  1.000000E-05  1.000000E-05  1.000000E-05  1.000000E-05  1.000000E-05  1.000000E-05  1.000000E-05  1.000000E-05  1.000000E-05
 1.000000E-05  1.000000E-05  1.000000E-05  1.000000E-05  1.000000E-05  1.000000E-05  1.000000E-05  1.000000E-05  1.000000E-05  1.000000E-05
 1.000000E-05  1.000000E-05  1.000000E-05  1.000000E-05  1.000000E-05  1.000000E-05  1.000000E-05  1.000000E-05  1.000000E-05  1.000000E-05
 1.000000E-05  1.000000E-05  1.000000E-05  1.000000E-05  1.000000E-05  1.000000E-05  1.000000E-05  1.000000E-05  1.000000E-05  1.000000E-05
 9.999119E-07  9.999119E-07  9.999119E-07  9.999119E-07  9.999119E-07  9.999119E-07  9.999119E-07  9.999119E-07  9.999119E-07  9.999119E-07
 9.999119E-07  9.999119E-07  9.999119E-07  9.999120E-07  9.999559E-07  9.999560E-07  9.999560E-07  9.999560E-07  9.999560E-07  9.999560E-07
 9.999560E-07  9.999560E-07  9.999560E-07  9.999560E-07  9.999560E-07  9.999560E-07  9.999560E-07  9.999560E-07  1.000000E-06  1.000000E-06
 1.000000E-06  1.000000E-06  1.000000E-06  1.000000E-06  1.000000E-06  1.000000E-06  1.000000E-06  1.000000E-06  1.000000E-06  1.000000E-06
 1.000000E-06  1.000000E-06  1.000000E-06  1.000000E-06  1.000000E-06  1.000000E-06  1.000000E-06  1.000000E-06  1.000000E-06  1.000000E-06
 1.000000E-06  1.000000E-06  1.000000E-06  1.000000E-06  1.000000E-06  1.000000E-06  1.000000E-06  1.000000E-06  1.000000E-06  1.000000E-06
 1.000000E-06  1.000013E-06  1.000013E-06  1.000000E-06  1.000000E-06  1.000000E-06  1.000000E-06  1.000000E-06  1.000000E-06  1.000000E-06
 9.999119E-07  9.999120E-07  9.999120E-07  9.999120E-07  9.999120E-07  9.999120E-07  9.999120E-07  9.999120E-07  9.999120E-07  9.999120E-07
 9.999120E-07  9.999120E-07  9.999120E-07  9.999120E-07  9.999559E-07  9.999560E-07  9.999560E-07  9.999560E-07  9.999560E-07  9.999560E-07
 9.999560E-07  9.999560E-07  9.999560E-07  9.999560E-07  9.999560E-07  9.999560E-07  9.999560E-07  9.999560E-07  1.000000E-06  1.000000E-06
 1.000000E-06  1.000000E-06  1.000000E-06  1.000000E-06  1.000000E-06  1.000000E-06  1.000000E-06  1.000000E-06  1.000000E-06  1.000000E-06
 1.000000E-06  1.000000E-06  1.000000E-06  1.000000E-06  1.000000E-06  1.000000E-06  1.000000E-06  1.000000E-06  1.000000E-06  1.000000E-06
 1.000000E-06  1.000000E-06  1.000000E-06  1.000000E-06  1.000000E-06  1.000000E-06  1.000000E-06  1.000000E-06  1.000000E-06  1.000000E-06
 1.000000E-06  1.000001E-06  1.000001E-06  1.000000E-06  1.000000E-06  1.000000E-06  1.000000E-06  1.000000E-06  1.000000E-06  1.000000E-06
 9.999120E-07  9.999121E-07  9.999121E-07  9.999121E-07  9.999121E-07  9.999121E-07  9.999121E-07  9.999121E-07  9.999121E-07  9.999121E-07
 9.999121E-07  9.999121E-07  9.999121E-07  9.999121E-07  9.999560E-07  9.999560E-07  9.999560E-07  9.999560E-07  9.999560E-07  9.999560E-07
 9.999560E-07  9.999560E-07  9.999560E-07  9.999560E-07  9.999560E-07  9.999560E-07  9.999560E-07  9.999560E-07  1.000000E-06  1.000000E-06
 1.000000E-06  1.000000E-06  1.000000E-06  1.000000E-06  1.000000E-06  1.000000E-06  1.000000E-06  1.000000E-06  1.000000E-06  1.000000E-06
 1.000000E-06  1.000000E-06  1.000000E-06  1.000000E-06  1.000000E-06  1.000000E-06  1.000000E-06  1.000000E-06  1.000000E-06  1.000000E-06
 1.000000E-06  1.000000E-06  1.000000E-06  1.000000E-06  1.000000E-06  1.000000E-06  1.000000E-06  1.000000E-06  1.000000E-06  1.000000E-06
 1.000000E-06  1.000002E-06  1.000002E-06  1.000000E-06  1.000000E-06  1.000000E-06  1.000000E-06  1.000000E-06  1.000000E-06  1.000000E-06
 1.870090E-04  1.870090E-04  1.870090E-04  1.870090E-04  1.870090E-04  1.870090E-04  1.870090E-04  1.870090E-04  1.870090E-04  1.870090E-04
 1.870090E-04  1.870090E-04  1.870090E-04  1.870090E-04  1.870172E-04  1.870172E-04  1.870172E-04  1.870172E-04  1.870172E-04  1.870172E-04
 1.870172E-04  1.870172E-04  1.870172E-04  1.870172E-04  1.870172E-04  1.870172E-04  1.870172E-04  1.870172E-04  1.870254E-04  1.870254E-04
 1.870254E-04  1.870254E-04  1.870254E-04  1.870254E-04  1.870254E-04  1.870254E-04  1.870254E-04  1.870254E-04  1.870254E-04  1.870254E-04
 1.870254E-04  1.870254E-04  1.870254E-04  1.870254E-04  1.870254E-04  1.870254E-04  1.870254E-04  1.870254E-04  1.870254E-04  1.870254E-04
 1.870254E-04  1.870254E-04  1.870254E-04  1.870254E-04  1.870254E-04  1.870254E-04  1.870254E-04  1.870254E-04  1.870254E-04  1.870254E-04
 1.870254E-04  1.870254E-04  1.870254E-04  1.870254E-04  1.870254E-04  1.870254E-04  1.870254E-04  1.870254E-04  1.870254E-04  1.870254E-04
 1.000059E-15  1.000059E-15  1.000059E-15  1.000059E-15  1.000059E-15  1.000059E-15  1.000059E-15  1.000059E-15  1.000059E-15  1.000059E-15
 1.000059E-15  1.000059E-15  1.000059E-15  1.000059E-15  1.000031E-15  1.000031E-15  1.000031E-15  1.000031E-15  1.000031E-15  1.000031E-15
 1.000031E-15  1.000031E-15  1.000031E-15  1.000031E-15  1.000031E-15  1.000031E-15  1.000031E-15  1.000031E-15  1.000004E-15  1.000004E-15
 1.000004E-15  1.000004E-15  1.000004E-15  1.000004E-15  1.000004E-15  1.000004E-15  1.000004E-15  1.000004E-15  1.000004E-15  1.000004E-15
 1.000004E-15  1.000004E-15  1.000004E-15  1.000004E-15  1.000004E-15  1.000004E-15  1.000004E-15  1.000004E-15  1.000004E-15  1.000004E-15
 1.000004E-15  1.000004E-15  1.000004E-15  1.000004E-15  1.000004E-15  1.000004E-15  1.000004E-15  1.000004E-15  1.000004E-15  1.000004E-15
 1.000004E-15  2.378711E-15  2.378711E-15  1.000004E-15  1.000004E-15  1.000004E-15  1.000004E-15  1.000004E-15  1.000004E-15  1.000004E-15
 2.527716E-04  2.527716E-04  2.527716E-04  2.527716E-04  2.527716E-04  2.527716E-04  2.527716E-04  2.527716E-04  2.527716E-04  2.527716E-04
 2.527716E-04  2.527716E-04  2.527716E-04  2.527716E-04  2.527827E-04  2.527827E-04  2.527827E-04  2.527827E-04  2.527827E-04  2.527827E-04
 2.527827E-04  2.527827E-04  2.527827E-04  2.527827E-04  2.527827E-04  2.527827E-04  2.527827E-04  2.527827E-04  2.527938E-04  2.527938E-04
 2.527938E-04  2.527938E-04  2.527938E-04  2.527938E-04  2.527938E-04  2.527938E-04  2.527938E-04  2.527938E-04  2.527938E-04  2.527938E-04
 2.527938E-04  2.527938E-04  2.527938E-04  2.527938E-04  2.527938E-04  2.527938E-04  2.527938E-04  2.527938E-04  2.527938E-04  2.527938E-04
 2.527938E-04  2.527938E-04  2.527938E-04  2.527938E-04  2.527938E-04  2.527938E-04  2.527938E-04  2.527938E-04  2.527938E-04  2.527938E-04
 2.527938E-04  2.527938E-04  2.527938E-04  2.527938E-04  2.527938E-04  2.527938E-04  2.527938E-04  2.527938E-04  2.527938E-04  2.527938E-04
 9.999120E-16  9.999121E-16  9.999121E-16  9.999121E-16  9.999121E-16  9.999121E-16  9.999121E-16  9.999121E-16  9.999121E-16  9.999121E-16
 9.999121E-16  9.999121E-16  9.999121E-16  9.999121E-16  9.999560E-16  9.999560E-16  9.999560E-16  9.999560E-16  9.999560E-16  9.999560E-16
 9.999560E-16  9.999560E-16  9.999560E-16  9.999560E-16  9.999560E-16  9.999560E-16  9.999560E-16  9.999560E-16  1.000000E-15  1.000000E-15
 1.000000E-15  1.000000E-15  1.000000E-15  1.000000E-15  1.000000E-15  1.000000E-15  1.000000E-15  1.000000E-15  1.000000E-15  1.000000E-15
 1.000000E-15  1.000000E-15  1.000000E-15  1.000000E-15  1.000000E-15  1.000000E-15  1.000000E-15  1.000000E-15  1.000000E-15  1.000000E-15
 1.000000E-15  1.000000E-15  1.000000E-15  1.000000E-15  1.000000E-15  1.000000E-15  1.000000E-15  1.000000E-15  1.000000E-15  1.000000E-15
 1.000000E-15  7.355324E-13  7.355324E-13  1.000000E-15  1.000000E-15  1.000000E-15  1.000000E-15  1.000000E-15  1.000000E-15  1.000000E-15
 2.100000E-01  2.100000E-01  2.100000E-01  2.100000E-01  2.100000E-01  2.100000E-01  2.100000E-01  2.100000E-01  2.100000E-01  2.100000E-01
 2.100000E-01  2.100000E-01  2.100000E-01  2.100000E-01  2.100000E-01  2.100000E-01  2.100000E-01  2.100000E-01  2.100000E-01  2.100000E-01
 2.100000E-01  2.100000E-01  2.100000E-01  2.100000E-01  2.100000E-01  2.100000E-01  2.100000E-01  2.100000E-01  2.100000E-01  2.100000E-01
 2.100000E-01  2.100000E-01  2.100000E-01  2.100000E-01  2.100000E-01  2.100000E-01  2.100000E-01  2.100000E-01  2.100000E-01  2.100000E-01
 2.100000E-01  2.100000E-01  2.100000E-01  2.100000E-01  2.100000E-01  2.100000E-01  2.100000E-01  2.100000E-01  2.100000E-01  2.100000E-01
 2.100000E-01  2.100000E-01  2.100000E-01  2.100000E-01  2.100000E-01  2.100000E-01  2.100000E-01  2.100000E-01  2.100000E-01  2.100000E-01
 2.100000E-01  2.100000E-01  2.100000E-01  2.100000E-01  2.100000E-01  2.100000E-01  2.100000E-01  2.100000E-01  2.100000E-01  2.100000E-01
 0.000000E+00  0.000000E+00  0.000000E+00  0.000000E+00  0.000000E+00  0.000000E+00  0.000000E+00  0.000000E+00  0.000000E+00  0.000000E+00