TITLE = "  2.0000E-09 [y]"
VARIABLES="X [m]","Y [m]","Z [m]","vlx [m/y]","vly [m/y]","vlz [m/y]","Material_ID"
ZONE T= "  2.0000E-09", I=  15, J=   2, K=   6, DATAPACKING=BLOCK, VARLOCATION=([4-7]=CELLCENTERED)
 0.000000E+00  1.000000E+02  2.000000E+02  3.000000E+02  4.000000E+02  5.000000E+02  6.000000E+02  7.000000E+02  8.000000E+02  9.000000E+02 
 1.000000E+03  1.100000E+03  1.200000E+03  1.300000E+03  1.400000E+03  0.000000E+00  1.000000E+02  2.000000E+02  3.000000E+02  4.000000E+02 
 5.000000E+02  6.000000E+02  7.000000E+02  8.000000E+02  9.000000E+02  1.000000E+03  1.100000E+03  1.200000E+03  1.300000E+03  1.400000E+03 
 0.000000E+00  1.000000E+02  2.000000E+02  3.000000E+02  4.000000E+02  5.000000E+02  6.000000E+02  7.000000E+02  8.000000E+02  9.000000E+02 
 1.000000E+03  1.100000E+03  1.200000E+03  1.300000E+03  1.400000E+03  0.000000E+00  1.000000E+02  2.000000E+02  3.000000E+02  4.000000E+02 
 5.000000E+02  6.000000E+02  7.000000E+02  8.000000E+02  9.000000E+02  1.000000E+03  1.100000E+03  1.200000E+03  1.300000E+03  1.400000E+03 
 0.000000E+00  1.000000E+02  2.000000E+02  3.000000E+02  4.000000E+02  5.000000E+02  6.000000E+02  7.000000E+02  8.000000E+02  9.000000E+02 
 1.000000E+03  1.100000E+03  1.200000E+03  1.300000E+03  1.400000E+03  0.000000E+00  1.000000E+02  2.000000E+02  3.000000E+02  4.000000E+02 
 5.000000E+02  6.000000E+02  7.000000E+02  8.000000E+02  9.000000E+02  1.000000E+03  1.100000E+03  1.200000E+03  1.300000E+03  1.400000E+03 
 0.000000E+00  1.000000E+02  2.000000E+02  3.000000E+02  4.000000E+02  5.000000E+02  6.000000E+02  7.000000E+02  8.000000E+02  9.000000E+02 
 1.000000E+03  1.100000E+03  1.200000E+03  1.300000E+03  1.400000E+03  0.000000E+00  1.000000E+02  2.000000E+02  3.000000E+02  4.000000E+02 
 5.000000E+02  6.000000E+02  7.000000E+02  8.000000E+02  9.000000E+02  1.000000E+03  1.100000E+03  1.200000E+03  1.300000E+03  1.400000E+03 
 0.000000E+00  1.000000E+02  2.000000E+02  3.000000E+02  4.000000E+02  5.000000E+02  6.000000E+02  7.000000E+02  8.000000E+02  9.000000E+02 
 1.000000E+03  1.100000E+03  1.200000E+03  1.300000E+03  1.400000E+03  0.000000E+00  1.000000E+02  2.000000E+02  3.000000E+02  4.000000E+02 
 5.000000E+02  6.000000E+02  7.000000E+02  8.000000E+02  9.000000E+02  1.000000E+03  1.100000E+03  1.200000E+03  1.300000E+03  1.400000E+03 
 0.000000E+00  1.000000E+02  2.000000E+02  3.000000E+02  4.000000E+02  5.000000E+02  6.000000E+02  7.000000E+02  8.000000E+02  9.000000E+02 
 1.000000E+03  1.100000E+03  1.200000E+03  1.300000E+03  1.400000E+03  0.000000E+00  1.000000E+02  2.000000E+02  3.000000E+02  4.000000E+02 
 5.000000E+02  6.000000E+02  7.000000E+02  8.000000E+02  9.000000E+02  1.000000E+03  1.100000E+03  1.200000E+03  1.300000E+03  1.400000E+03 
 0.000000E+00  0.000000E+00  0.000000E+00  0.000000E+00  0.000000E+00  0.000000E+00  0.000000E+00  0.000000E+00  0.000000E+00  0.000000E+00 
 0.000000E+00  0.000000E+00  0.000000E+00  0.000000E+00  0.000000E+00  1.000000E+00  1.000000E+00  1.000000E+00  1.000000E+00  1.000000E+00 
 1.000000E+00  1.000000E+00  1.000000E+00  1.000000E+00  1.000000E+00  1.000000E+00  1.000000E+00  1.000000E+00  1.000000E+00  1.000000E+00 
 0.000000E+00  0.000000E+00  0.000000E+00  0.000000E+00  0.000000E+00  0.000000E+00  0.000000E+00  0.000000E+00  0.000000E+00  0.000000E+00 
 0.000000E+00  0.000000E+00  0.000000E+00  0.000000E+00  0.000000E+00  1.000000E+00  1.000000E+00  1.000000E+00  1.000000E+00  1.000000E+00 
 1.000000E+00  1.000000E+00  1.000000E+00  1.000000E+00  1.000000E+00  1.000000E+00  1.000000E+00  1.000000E+00  1.000000E+00  1.000000E+00 
 0.000000E+00  0.000000E+00  0.000000E+00  0.000000E+00  0.000000E+00  0.000000E+00  0.000000E+00  0.000000E+00  0.000000E+00  0.000000E+00 
 0.000000E+00  0.000000E+00  0.000000E+00  0.000000E+00  0.000000E+00  1.000000E+00  1.000000E+00  1.000000E+00  1.000000E+00  1.000000E+00 
 1.000000E+00  1.000000E+00  1.000000E+00  1.000000E+00  1.000000E+00  1.000000E+00  1.000000E+00  1.000000E+00  1.000000E+00  1.000000E+00 
 0.000000E+00  0.000000E+00  0.000000E+00  0.000000E+00  0.000000E+00  0.000000E+00  0.000000E+00  0.000000E+00  0.000000E+00  0.000000E+00 
 0.000000E+00  0.000000E+00  0.000000E+00  0.000000E+00  0.000000E+00  1.000000E+00  1.000000E+00  1.000000E+00  1.000000E+00  1.000000E+00 
 1.000000E+00  1.000000E+00  1.000000E+00  1.000000E+00  1.000000E+00  1.000000E+00  1.000000E+00  1.000000E+00  1.000000E+00  1.000000E+00 
 0.000000E+00  0.000000E+00  0.000000E+00  0.000000E+00  0.000000E+00  0.000000E+00  0.000000E+00  0.000000E+00  0.000000E+00  0.000000E+00 
 0.000000E+00  0.000000E+00  0.000000E+00  0.000000E+00  0.000000E+00  1.000000E+00  1.000000E+00  1.000000E+00  1.000000E+00  1.000000E+00 
 1.000000E+00  1.000000E+00  1.000000E+00  1.000000E+00  1.000000E+00  1.000000E+00  1.000000E+00  1.000000E+00  1.000000E+00  1.000000E+00 
 0.000000E+00  0.000000E+00  0.000000E+00  0.000000E+00  0.000000E+00  0.000000E+00  0.000000E+00  0.000000E+00  0.000000E+00  0.000000E+00 
 0.000000E+00  0.000000E+00  0.000000E+00  0.000000E+00  0.000000E+00  1.000000E+00  1.000000E+00  1.000000E+00  1.000000E+00  1.000000E+00 
 1.000000E+00  1.000000E+00  1.000000E+00  1.000000E+00  1.000000E+00  1.000000E+00  1.000000E+00  1.000000E+00  1.000000E+00  1.000000E+00 
 0.000000E+00  0.000000E+00  0.000000E+00  0.000000E+00  0.000000E+00  0.000000E+00  0.000000E+00  0.000000E+00  0.000000E+00  0.000000E+00 
 0.000000E+00  0.000000E+00  0.000000E+00  0.000000E+00  0.000000E+00  0.000000E+00  0.000000E+00  0.000000E+00  0.000000E+00  0.000000E+00 
 0.000000E+00  0.000000E+00  0.000000E+00  0.000000E+00  0.000000E+00  0.000000E+00  0.000000E+00  0.000000E+00  0.000000E+00  0.000000E+00 
 1.000000E+01  1.000000E+01  1.000000E+01  1.000000E+01  1.000000E+01  1.000000E+01  1.000000E+01  1.000000E+01  1.000000E+01  1.000000E+01 
 1.000000E+01  1.000000E+01  1.000000E+01  1.000000E+01  1.000000E+01  1.000000E+01  1.000000E+01  1.000000E+01  1.000000E+01  1.000000E+01 
 1.000000E+01  1.000000E+01  1.000000E+01  1.000000E+01  1.000000E+01  1.000000E+01  1.000000E+01  1.000000E+01  1.000000E+01  1.000000E+01 
 2.000000E+01  2.000000E+01  2.000000E+01  2.000000E+01  2.000000E+01  2.000000E+01  2.000000E+01  2.000000E+01  2.000000E+01  2.000000E+01 
 2.000000E+01  2.000000E+01  2.000000E+01  2.000000E+01  2.000000E+01  2.000000E+01  2.000000E+01  2.000000E+01  2.000000E+01  2.000000E+01 
 2.000000E+01  2.000000E+01  2.000000E+01  2.000000E+01  2.000000E+01  2.000000E+01  2.000000E+01  2.000000E+01  2.000000E+01  2.000000E+01 
 3.000000E+01  3.000000E+01  3.000000E+01  3.000000E+01  3.000000E+01  3.000000E+01  3.000000E+01  3.000000E+01  3.000000E+01  3.000000E+01 
 3.000000E+01  3.000000E+01  3.000000E+01  3.000000E+01  3.000000E+01  3.000000E+01  3.000000E+01  3.000000E+01  3.000000E+01  3.000000E+01 
 3.000000E+01  3.000000E+01  3.000000E+01  3.000000E+01  3.000000E+01  3.000000E+01  3.000000E+01  3.000000E+01  3.000000E+01  3.000000E+01 
 4.000000E+01  4.000000E+01  4.000000E+01  4.000000E+01  4.000000E+01  4.000000E+01  4.000000E+01  4.000000E+01  4.000000E+01  4.000000E+01 
 4.000000E+01  4.000000E+01  4.000000E+01  4.000000E+01  4.000000E+01  4.000000E+01  4.000000E+01  4.000000E+01  4.000000E+01  4.000000E+01 
 4.000000E+01  4.000000E+01  4.000000E+01  4.000000E+01  4.000000E+01  4.000000E+01  4.000000E+01  4.000000E+01  4.000000E+01  4.000000E+01 
 5.000000E+01  5.000000E+01  5.000000E+01  5.000000E+01  5.000000E+01  5.000000E+01  5.000000E+01  5.000000E+01  5.000000E+01  5.000000E+01 
 5.000000E+01  5.000000E+01  5.000000E+01  5.000000E+01  5.000000E+01  5.000000E+01  5.000000E+01  5.000000E+01  5.000000E+01  5.000000E+01 
 5.000000E+01  5.000000E+01  5.000000E+01  5.000000E+01  5.000000E+01  5.000000E+01  5.000000E+01  5.000000E+01  5.000000E+01  5.000000E+01 
 8.369060E+02  1.020986E+00  9.343217E-04  7.582449E-07  4.625516E-10  3.116925E-13  0.000000E+00  0.000000E+00 -1.246770E-12 -1.764803E-09
 3.802492E-07  4.671227E-04  5.104466E-01  4.184397E+02  8.368637E+02  1.020655E+00  9.337698E-04  7.657603E-07  4.667562E-10  1.558451E-13
 0.000000E+00  0.000000E+00  1.714296E-11  1.407640E-08  4.663839E-07  4.663575E-04  5.090142E-01  4.184197E+02  8.368238E+02  1.017815E+00
 9.311834E-04  7.539269E-07  4.597399E-10  3.116881E-13  0.000000E+00  3.038959E-12  5.009996E-09  8.229294E-06  5.217741E-05  4.698544E-04
 2.430611E-03  2.004709E-03  1.806776E-10  1.806776E-10  2.017599E-17  0.000000E+00  0.000000E+00  0.000000E+00  0.000000E+00  0.000000E+00
 0.000000E+00  0.000000E+00 -7.084014E-17 -6.187303E-17  1.259878E-16  1.170207E-16  0.000000E+00  0.000000E+00  0.000000E+00  0.000000E+00
-1.474128E-09 -1.474128E-09  1.474128E-09  1.474128E-09  0.000000E+00  0.000000E+00  0.000000E+00  0.000000E+00  0.000000E+00  0.000000E+00
 0.000000E+00  0.000000E+00  0.000000E+00  0.000000E+00  0.000000E+00  0.000000E+00  0.000000E+00  0.000000E+00  0.000000E+00  0.000000E+00
 0.000000E+00  0.000000E+00  0.000000E+00  0.000000E+00  0.000000E+00  0.000000E+00  0.000000E+00  0.000000E+00  0.000000E+00  0.000000E+00
 0.000000E+00  0.000000E+00  0.000000E+00  0.000000E+00  0.000000E+00  0.000000E+00  0.000000E+00  0.000000E+00  0.000000E+00  0.000000E+00
 0.000000E+00  0.000000E+00  0.000000E+00  0.000000E+00  0.000000E+00  0.000000E+00  0.000000E+00  0.000000E+00  0.000000E+00  0.000000E+00
 0.000000E+00  0.000000E+00  0.000000E+00  0.000000E+00  0.000000E+00  0.000000E+00  0.000000E+00  0.000000E+00  0.000000E+00  0.000000E+00
 0.000000E+00  0.000000E+00  0.000000E+00  0.000000E+00  0.000000E+00  0.000000E+00  0.000000E+00  0.000000E+00  0.000000E+00  0.000000E+00
 0.000000E+00  0.000000E+00  0.000000E+00  0.000000E+00  0.000000E+00  0.000000E+00  0.000000E+00  0.000000E+00  0.000000E+00  0.000000E+00
 1.535588E-04  4.597944E-07  1.774998E-07  1.816637E-07  1.816661E-07  1.816660E-07  1.816660E-07  1.816660E-07  1.816660E-07  1.816761E-07
 1.904029E-07  2.291928E-07 -2.184756E-07 -7.754324E-04  8.457886E-04  1.018124E-06  1.801401E-07  1.789715E-07  1.789707E-07  1.789707E-07
 1.789707E-07  1.789707E-07  1.789716E-07  1.803526E-07  2.448762E-06  1.446391E-05  3.212449E-06 -1.400569E-01  2.782571E-01  2.508002E-07
-4.932765E-07 -4.965653E-07 -4.965673E-07 -4.965672E-07 -4.965672E-07 -4.965672E-07 -4.965664E-07 -4.951907E-07  1.768438E-06  1.376196E-05
 2.712707E-06 -1.396699E-01  2.774880E-01 -6.192394E-07 -6.664798E-07 -6.665180E-07 -6.665181E-07 -6.669246E-07 -6.669246E-07 -6.665181E-07
-6.665181E-07 -6.665183E-07 -6.669359E-07 -6.691676E-07 -6.907922E-07 -7.925797E-07 -1.866900E-01 -1.866900E-01 -1.866900E-01 -1.866900E-01
-1.866900E-01 -6.457793E+00 -6.457793E+00 -1.866900E-01 -1.866900E-01 -1.866900E-01 -1.866900E-01 -1.866900E-01 -1.866900E-01 -1.866900E-01
  2   2   2   2   2   2   2   2   2   2
  2   2   2   2   2   2   2   2   2   2
  2   2   2   2   2   2   2   2   2   2
  2   2   2   2   2   2   2   2   2   2
  2   2   2   2   2   2   2   2   2   2
  2   2   2   2   2   2   2   2   2   2
  2   2   2   2   2   2   2   2   2   2
