TITLE = "  1.0000E+00 [y]"
VARIABLES="X [m]","Y [m]","Z [m]","P [Pa]","sl","pH","Na+_tot_m","Ca++_tot_m","Fe++_tot_m","K+_tot_m","Al+++_tot_m","H+_tot_m","N2(aq)_tot_m","NO3-_tot_m","HCO3-_tot_m","Cl-_tot_m","SO4--_tot_m","HPO4--_tot_m","F-_tot_m","SiO2(aq)_tot_m","UO2++_tot_m","O2(aq)_tot_m","Tracer_tot_m","Quartz_vf","Chalcedony_vf","Calcite_vf","Ferrihydrite_vf","K-Feldspar_vf","Kaolinite_vf","Gibbsite_vf","Schoepite_vf","(UO2)3(PO4)2.4H2O_vf","Soddyite_vf","Jurbanite_vf","Quartz_rt","Chalcedony_rt","Calcite_rt","Ferrihydrite_rt","K-Feldspar_rt","Kaolinite_rt","Gibbsite_rt","Schoepite_rt","(UO2)3(PO4)2.4H2O_rt","Soddyite_rt","Jurbanite_rt",">SiOH",">FeOH",">AlOH",">SiOUO3H3++",">SiOUO3H2+",">SiOUO3H",">SiOUO3-",">SiOUO2(OH)2-",">FeOHUO3",">FeOHUO2++",">AlOUO2+","Na+_kd","Ca++_kd","Fe++_kd","K+_kd","Al+++_kd","H+_kd","N2(aq)_kd","NO3-_kd","HCO3-_kd","Cl-_kd","SO4--_kd","HPO4--_kd","F-_kd","SiO2(aq)_kd","UO2++_kd","O2(aq)_kd","Tracer_kd","Na+_total_sorb","Ca++_total_sorb","Fe++_total_sorb","K+_total_sorb","Al+++_total_sorb","H+_total_sorb","N2(aq)_total_sorb","NO3-_total_sorb","HCO3-_total_sorb","Cl-_total_sorb","SO4--_total_sorb","HPO4--_total_sorb","F-_total_sorb","SiO2(aq)_total_sorb","UO2++_total_sorb","O2(aq)_total_sorb","Tracer_total_sorb","Material_ID"
ZONE T= "  1.0000E+00", I=  15, J=   2, K=   6, VARLOCATION=([4-91]=CELLCENTERED), DATAPACKING=BLOCK
 0.000000E+00  1.000000E+02  2.000000E+02  3.000000E+02  4.000000E+02  5.000000E+02  6.000000E+02  7.000000E+02  8.000000E+02  9.000000E+02 
 1.000000E+03  1.100000E+03  1.200000E+03  1.300000E+03  1.400000E+03  0.000000E+00  1.000000E+02  2.000000E+02  3.000000E+02  4.000000E+02 
 5.000000E+02  6.000000E+02  7.000000E+02  8.000000E+02  9.000000E+02  1.000000E+03  1.100000E+03  1.200000E+03  1.300000E+03  1.400000E+03 
 0.000000E+00  1.000000E+02  2.000000E+02  3.000000E+02  4.000000E+02  5.000000E+02  6.000000E+02  7.000000E+02  8.000000E+02  9.000000E+02 
 1.000000E+03  1.100000E+03  1.200000E+03  1.300000E+03  1.400000E+03  0.000000E+00  1.000000E+02  2.000000E+02  3.000000E+02  4.000000E+02 
 5.000000E+02  6.000000E+02  7.000000E+02  8.000000E+02  9.000000E+02  1.000000E+03  1.100000E+03  1.200000E+03  1.300000E+03  1.400000E+03 
 0.000000E+00  1.000000E+02  2.000000E+02  3.000000E+02  4.000000E+02  5.000000E+02  6.000000E+02  7.000000E+02  8.000000E+02  9.000000E+02 
 1.000000E+03  1.100000E+03  1.200000E+03  1.300000E+03  1.400000E+03  0.000000E+00  1.000000E+02  2.000000E+02  3.000000E+02  4.000000E+02 
 5.000000E+02  6.000000E+02  7.000000E+02  8.000000E+02  9.000000E+02  1.000000E+03  1.100000E+03  1.200000E+03  1.300000E+03  1.400000E+03 
 0.000000E+00  1.000000E+02  2.000000E+02  3.000000E+02  4.000000E+02  5.000000E+02  6.000000E+02  7.000000E+02  8.000000E+02  9.000000E+02 
 1.000000E+03  1.100000E+03  1.200000E+03  1.300000E+03  1.400000E+03  0.000000E+00  1.000000E+02  2.000000E+02  3.000000E+02  4.000000E+02 
 5.000000E+02  6.000000E+02  7.000000E+02  8.000000E+02  9.000000E+02  1.000000E+03  1.100000E+03  1.200000E+03  1.300000E+03  1.400000E+03 
 0.000000E+00  1.000000E+02  2.000000E+02  3.000000E+02  4.000000E+02  5.000000E+02  6.000000E+02  7.000000E+02  8.000000E+02  9.000000E+02 
 1.000000E+03  1.100000E+03  1.200000E+03  1.300000E+03  1.400000E+03  0.000000E+00  1.000000E+02  2.000000E+02  3.000000E+02  4.000000E+02 
 5.000000E+02  6.000000E+02  7.000000E+02  8.000000E+02  9.000000E+02  1.000000E+03  1.100000E+03  1.200000E+03  1.300000E+03  1.400000E+03 
 0.000000E+00  1.000000E+02  2.000000E+02  3.000000E+02  4.000000E+02  5.000000E+02  6.000000E+02  7.000000E+02  8.000000E+02  9.000000E+02 
 1.000000E+03  1.100000E+03  1.200000E+03  1.300000E+03  1.400000E+03  0.000000E+00  1.000000E+02  2.000000E+02  3.000000E+02  4.000000E+02 
 5.000000E+02  6.000000E+02  7.000000E+02  8.000000E+02  9.000000E+02  1.000000E+03  1.100000E+03  1.200000E+03  1.300000E+03  1.400000E+03 
 0.000000E+00  0.000000E+00  0.000000E+00  0.000000E+00  0.000000E+00  0.000000E+00  0.000000E+00  0.000000E+00  0.000000E+00  0.000000E+00 
 0.000000E+00  0.000000E+00  0.000000E+00  0.000000E+00  0.000000E+00  1.000000E+00  1.000000E+00  1.000000E+00  1.000000E+00  1.000000E+00 
 1.000000E+00  1.000000E+00  1.000000E+00  1.000000E+00  1.000000E+00  1.000000E+00  1.000000E+00  1.000000E+00  1.000000E+00  1.000000E+00 
 0.000000E+00  0.000000E+00  0.000000E+00  0.000000E+00  0.000000E+00  0.000000E+00  0.000000E+00  0.000000E+00  0.000000E+00  0.000000E+00 
 0.000000E+00  0.000000E+00  0.000000E+00  0.000000E+00  0.000000E+00  1.000000E+00  1.000000E+00  1.000000E+00  1.000000E+00  1.000000E+00 
 1.000000E+00  1.000000E+00  1.000000E+00  1.000000E+00  1.000000E+00  1.000000E+00  1.000000E+00  1.000000E+00  1.000000E+00  1.000000E+00 
 0.000000E+00  0.000000E+00  0.000000E+00  0.000000E+00  0.000000E+00  0.000000E+00  0.000000E+00  0.000000E+00  0.000000E+00  0.000000E+00 
 0.000000E+00  0.000000E+00  0.000000E+00  0.000000E+00  0.000000E+00  1.000000E+00  1.000000E+00  1.000000E+00  1.000000E+00  1.000000E+00 
 1.000000E+00  1.000000E+00  1.000000E+00  1.000000E+00  1.000000E+00  1.000000E+00  1.000000E+00  1.000000E+00  1.000000E+00  1.000000E+00 
 0.000000E+00  0.000000E+00  0.000000E+00  0.000000E+00  0.000000E+00  0.000000E+00  0.000000E+00  0.000000E+00  0.000000E+00  0.000000E+00 
 0.000000E+00  0.000000E+00  0.000000E+00  0.000000E+00  0.000000E+00  1.000000E+00  1.000000E+00  1.000000E+00  1.000000E+00  1.000000E+00 
 1.000000E+00  1.000000E+00  1.000000E+00  1.000000E+00  1.000000E+00  1.000000E+00  1.000000E+00  1.000000E+00  1.000000E+00  1.000000E+00 
 0.000000E+00  0.000000E+00  0.000000E+00  0.000000E+00  0.000000E+00  0.000000E+00  0.000000E+00  0.000000E+00  0.000000E+00  0.000000E+00 
 0.000000E+00  0.000000E+00  0.000000E+00  0.000000E+00  0.000000E+00  1.000000E+00  1.000000E+00  1.000000E+00  1.000000E+00  1.000000E+00 
 1.000000E+00  1.000000E+00  1.000000E+00  1.000000E+00  1.000000E+00  1.000000E+00  1.000000E+00  1.000000E+00  1.000000E+00  1.000000E+00 
 0.000000E+00  0.000000E+00  0.000000E+00  0.000000E+00  0.000000E+00  0.000000E+00  0.000000E+00  0.000000E+00  0.000000E+00  0.000000E+00 
 0.000000E+00  0.000000E+00  0.000000E+00  0.000000E+00  0.000000E+00  1.000000E+00  1.000000E+00  1.000000E+00  1.000000E+00  1.000000E+00 
 1.000000E+00  1.000000E+00  1.000000E+00  1.000000E+00  1.000000E+00  1.000000E+00  1.000000E+00  1.000000E+00  1.000000E+00  1.000000E+00 
 0.000000E+00  0.000000E+00  0.000000E+00  0.000000E+00  0.000000E+00  0.000000E+00  0.000000E+00  0.000000E+00  0.000000E+00  0.000000E+00 
 0.000000E+00  0.000000E+00  0.000000E+00  0.000000E+00  0.000000E+00  0.000000E+00  0.000000E+00  0.000000E+00  0.000000E+00  0.000000E+00 
 0.000000E+00  0.000000E+00  0.000000E+00  0.000000E+00  0.000000E+00  0.000000E+00  0.000000E+00  0.000000E+00  0.000000E+00  0.000000E+00 
 1.000000E+01  1.000000E+01  1.000000E+01  1.000000E+01  1.000000E+01  1.000000E+01  1.000000E+01  1.000000E+01  1.000000E+01  1.000000E+01 
 1.000000E+01  1.000000E+01  1.000000E+01  1.000000E+01  1.000000E+01  1.000000E+01  1.000000E+01  1.000000E+01  1.000000E+01  1.000000E+01 
 1.000000E+01  1.000000E+01  1.000000E+01  1.000000E+01  1.000000E+01  1.000000E+01  1.000000E+01  1.000000E+01  1.000000E+01  1.000000E+01 
 2.000000E+01  2.000000E+01  2.000000E+01  2.000000E+01  2.000000E+01  2.000000E+01  2.000000E+01  2.000000E+01  2.000000E+01  2.000000E+01 
 2.000000E+01  2.000000E+01  2.000000E+01  2.000000E+01  2.000000E+01  2.000000E+01  2.000000E+01  2.000000E+01  2.000000E+01  2.000000E+01 
 2.000000E+01  2.000000E+01  2.000000E+01  2.000000E+01  2.000000E+01  2.000000E+01  2.000000E+01  2.000000E+01  2.000000E+01  2.000000E+01 
 3.000000E+01  3.000000E+01  3.000000E+01  3.000000E+01  3.000000E+01  3.000000E+01  3.000000E+01  3.000000E+01  3.000000E+01  3.000000E+01 
 3.000000E+01  3.000000E+01  3.000000E+01  3.000000E+01  3.000000E+01  3.000000E+01  3.000000E+01  3.000000E+01  3.000000E+01  3.000000E+01 
 3.000000E+01  3.000000E+01  3.000000E+01  3.000000E+01  3.000000E+01  3.000000E+01  3.000000E+01  3.000000E+01  3.000000E+01  3.000000E+01 
 4.000000E+01  4.000000E+01  4.000000E+01  4.000000E+01  4.000000E+01  4.000000E+01  4.000000E+01  4.000000E+01  4.000000E+01  4.000000E+01 
 4.000000E+01  4.000000E+01  4.000000E+01  4.000000E+01  4.000000E+01  4.000000E+01  4.000000E+01  4.000000E+01  4.000000E+01  4.000000E+01 
 4.000000E+01  4.000000E+01  4.000000E+01  4.000000E+01  4.000000E+01  4.000000E+01  4.000000E+01  4.000000E+01  4.000000E+01  4.000000E+01 
 5.000000E+01  5.000000E+01  5.000000E+01  5.000000E+01  5.000000E+01  5.000000E+01  5.000000E+01  5.000000E+01  5.000000E+01  5.000000E+01 
 5.000000E+01  5.000000E+01  5.000000E+01  5.000000E+01  5.000000E+01  5.000000E+01  5.000000E+01  5.000000E+01  5.000000E+01  5.000000E+01 
 5.000000E+01  5.000000E+01  5.000000E+01  5.000000E+01  5.000000E+01  5.000000E+01  5.000000E+01  5.000000E+01  5.000000E+01  5.000000E+01 
 3.746992E+05  3.737840E+05  3.728311E+05  3.717365E+05  3.701267E+05  3.669420E+05  3.601817E+05  3.497595E+05  3.376388E+05  3.249409E+05
 3.120147E+05  2.987184E+05  2.841937E+05  2.671381E+05  2.769029E+05  2.759983E+05  2.750832E+05  2.741240E+05  2.728987E+05  2.704396E+05
 2.637109E+05  2.525771E+05  2.400503E+05  2.272264E+05  2.143523E+05  2.013677E+05  1.873161E+05  1.699357E+05  1.791126E+05  1.782208E+05
 1.773555E+05  1.766124E+05  1.761224E+05  1.754897E+05  1.688420E+05  1.559041E+05  1.425739E+05  1.295344E+05  1.167342E+05  1.044083E+05
 9.437193E+04  8.489743E+04  8.139044E+04  8.055078E+04  7.994732E+04  8.143765E+04  8.607606E+04  9.249265E+04  9.070341E+04  7.972781E+04
 6.486826E+04  4.127778E+04  2.355019E+04  1.359096E+04  1.221097E+04  1.137201E+04  3.377461E+04  3.114272E+04  2.972184E+04  4.112173E+04
 6.152073E+04  8.110890E+04  8.096950E+04  6.082373E+04  3.868744E+04  2.374162E+04  2.189438E+04  2.127740E+04  2.120503E+04  2.116526E+04
 1.000000E+00  1.000000E+00  1.000000E+00  1.000000E+00  1.000000E+00  1.000000E+00  1.000000E+00  1.000000E+00  1.000000E+00  1.000000E+00
 1.000000E+00  1.000000E+00  1.000000E+00  1.000000E+00  1.000000E+00  1.000000E+00  1.000000E+00  1.000000E+00  1.000000E+00  1.000000E+00
 1.000000E+00  1.000000E+00  1.000000E+00  1.000000E+00  1.000000E+00  1.000000E+00  1.000000E+00  1.000000E+00  1.000000E+00  1.000000E+00
 1.000000E+00  1.000000E+00  1.000000E+00  1.000000E+00  1.000000E+00  1.000000E+00  1.000000E+00  1.000000E+00  1.000000E+00  1.000000E+00
 1.000000E+00  1.000000E+00  5.279764E-01  5.279764E-01  5.279764E-01  5.279764E-01  5.279764E-01  5.279764E-01  5.279764E-01  5.279764E-01
 5.279764E-01  5.279764E-01  5.279764E-01  5.279764E-01  5.279764E-01  5.279764E-01  4.697466E-01  4.697466E-01  4.697466E-01  4.697466E-01
 4.697466E-01  4.697466E-01  4.697466E-01  4.697466E-01  4.697466E-01  4.697466E-01  4.697466E-01  4.697466E-01  4.697466E-01  4.697466E-01
 7.500277E+00  7.500386E+00  7.500375E+00  7.500309E+00  7.460918E+00  6.233617E+00  6.020216E+00  6.326727E+00  6.665230E+00  6.955547E+00
 7.174388E+00  7.337155E+00  7.159776E+00  7.034287E+00  7.500249E+00  7.500357E+00  7.500347E+00  7.499749E+00  7.178902E+00  4.166643E+00
 4.012095E+00  4.388795E+00  5.411725E+00  6.164389E+00  6.590820E+00  7.261048E+00  7.094139E+00  7.655289E+00  7.500222E+00  7.500333E+00
 7.500355E+00  7.486869E+00  6.489743E+00  3.683765E+00  3.660300E+00  3.836333E+00  4.143298E+00  4.978659E+00  6.106178E+00  7.315384E+00
 7.059587E+00  9.806696E+00  7.433386E+00  7.455658E+00  7.423425E+00  5.724717E+00  4.727041E+00  4.152482E+00  4.096447E+00  4.464405E+00
 5.210260E+00  7.478557E+00  7.514563E+00  7.500974E+00  7.344965E+00  7.169484E+00  7.726964E+00  7.718918E+00  7.676099E+00  6.156173E+00
 4.316046E+00  3.758304E+00  3.754577E+00  4.301671E+00  6.244810E+00  7.640837E+00  7.653543E+00  7.654213E+00  7.654095E+00  7.637965E+00
 9.977446E-06  9.967038E-06  9.967877E-06  9.976440E-06  2.189900E-05  1.198824E-03  1.565542E-03  1.041061E-03  5.631710E-04  2.817641E-04
 1.405324E-04  8.325121E-05  1.494659E-03  7.937912E-02  9.978505E-06  9.968202E-06  9.968823E-06  1.013348E-05  1.308501E-04  4.815542E-03
 5.622443E-03  3.969072E-03  2.371693E-03  1.286826E-03  6.604152E-04  3.846175E-04  8.949131E-03  1.115841E+00  9.975967E-06  9.963393E-06
 9.948689E-06  1.370447E-05  5.804032E-04  8.817361E-03  9.253444E-03  6.616892E-03  4.484489E-03  2.759554E-03  1.526898E-03  8.580901E-04
 2.214858E-02  7.160659E+00  5.844983E-08  5.712556E-08  4.742491E-07  4.370908E-05  5.684761E-04  2.221487E-03  2.626342E-03  1.144278E-03
 2.294036E-04  1.623999E-05  8.261446E-06  9.599989E-06  1.829338E-05  9.545614E-04  8.783380E-06  9.604689E-06  1.057725E-05  9.536401E-05
 1.699314E-03  6.134512E-03  6.199896E-03  1.762748E-03  1.035494E-04  1.232567E-05  1.222617E-05  1.230627E-05  1.231478E-05  1.236101E-05
 9.977452E-06  9.967044E-06  9.967880E-06  9.972235E-06  9.908836E-06  9.036370E-06  8.771027E-06  9.106389E-06  9.473447E-06  9.719487E-06
 9.862218E-06  1.340178E-05  2.390395E-05  2.341492E-05  9.978511E-06  9.968208E-06  9.968814E-06  9.957341E-06  9.295874E-06  6.549955E-06
 6.105088E-06  6.818589E-06  7.884842E-06  8.763454E-06  9.478996E-06  4.212364E-05  8.969760E-05  1.247526E-05  9.975935E-06  9.963347E-06
 9.946632E-06  9.581942E-06  6.769340E-06  4.205640E-06  4.148093E-06  4.226746E-06  5.493565E-06  7.058555E-06  9.605726E-06  1.213450E-04
 1.934713E-04  7.031108E-06  1.297542E-08  1.570687E-08  2.272224E-08  3.099900E-08  2.223061E-07  8.191353E-07  9.683130E-07  4.394598E-07
 2.782972E-07  2.960472E-06  7.365251E-06  9.282166E-06  9.476588E-06  9.597794E-06  6.818419E-07  8.502669E-07  1.091611E-06  8.884795E-07
 8.494462E-07  2.261988E-06  2.286097E-06  8.785035E-07  1.056626E-06  1.615697E-06  1.654699E-06  1.667628E-06  1.668892E-06  1.669619E-06
 8.475407E-08  8.475282E-08  8.475295E-08  8.475369E-08  8.521496E-08  1.875522E-07  2.615749E-07  1.633399E-07  1.164388E-07  9.802131E-08
 9.051974E-08  8.706621E-08  9.278464E-08  1.033712E-07  8.475438E-08  8.475315E-08  8.475326E-08  8.475983E-08  9.039972E-08  2.596292E-05
 3.575291E-05  1.710398E-05  1.130111E-06  2.013993E-07  1.235279E-07  8.870892E-08  9.758253E-08  8.033946E-08  8.475465E-08  8.475336E-08
 8.475298E-08  8.490696E-08  1.356593E-07  7.602546E-05  8.106588E-05  5.356527E-05  2.614124E-05  5.340267E-06  2.236193E-07  8.789069E-08
 1.008663E-07  7.893389E-08  8.485926E-08  8.459875E-08  8.502329E-08  3.978785E-07  4.480228E-06  1.808650E-05  2.158517E-05  9.120307E-06
 1.256118E-06  8.483916E-08  8.453427E-08  8.471967E-08  8.691256E-08  9.211340E-08  8.273446E-08  8.278766E-08  8.303335E-08  1.971407E-07
 1.360127E-05  4.004391E-05  4.055482E-05  1.414366E-05  1.753420E-07  8.328901E-08  8.320948E-08  8.320711E-08  8.320812E-08  8.331783E-08
 1.916883E-04  1.914921E-04  1.915079E-04  1.915899E-04  1.903411E-04  1.665215E-04  1.591289E-04  1.688518E-04  1.788570E-04  1.853003E-04
 1.888485E-04  2.685829E-04  2.788726E-02  1.524204E+00  1.917083E-04  1.915140E-04  1.915255E-04  1.913045E-04  1.781161E-04  9.502886E-05
 8.126574E-05  1.056869E-04  1.365136E-04  1.605782E-04  1.783874E-04  8.167697E-04  1.682928E-01  2.143111E+01  1.916585E-04  1.914204E-04
 1.911004E-04  1.841065E-04  1.268092E-04  2.333985E-05  1.940032E-05  3.826667E-05  7.649978E-05  1.181733E-04  1.751680E-04  1.985402E-03
 4.191110E-01  1.375408E+02  4.299766E-07  5.065376E-07  6.548272E-07  4.302391E-07  4.595460E-07  1.198026E-06  1.414408E-06  8.443742E-07
 4.223866E-06  5.789932E-05  1.416050E-04  1.782313E-04  3.449637E-04  1.832439E-02  1.471623E-06  3.766784E-06  7.733298E-06  6.256493E-06
 1.291178E-06  3.169477E-06  3.203423E-06  1.335142E-06  8.787016E-06  1.612348E-05  1.658464E-05  1.673662E-05  1.676024E-05  1.756935E-05
 6.706693E-09  6.719017E-09  6.718146E-09  6.713020E-09  6.384869E-09  2.740238E-09  3.261388E-09  2.253937E-09  2.368350E-09  3.137271E-09
 4.165918E-09  4.913133E-09  2.063612E-12  9.147528E-19  6.705309E-09  6.717514E-09  6.716898E-09  6.723021E-09  4.512974E-09  3.904296E-06
 4.933488E-06  2.043575E-06  1.567506E-08  2.191873E-09  2.193209E-09  2.917722E-09  3.742162E-15  1.220509E-24  6.707787E-09  6.722465E-09
 6.740498E-09  6.988994E-09  3.168720E-09  8.876354E-06  9.280246E-06  7.136094E-06  3.922882E-06  1.440316E-07  2.241050E-09  1.199780E-09
 1.238884E-16  3.979721E-34  2.440493E-08  2.547574E-08  2.395566E-08  9.964329E-09  8.726765E-07  2.135589E-06  2.519175E-06  1.772426E-06
 5.585119E-08  2.364285E-08  1.034215E-08  7.455313E-09  4.955490E-09  4.493791E-11  4.419725E-08  4.347726E-08  3.979532E-08  6.458479E-09
 2.682090E-06  5.481454E-06  5.540370E-06  2.768754E-06  6.396488E-09  3.703416E-08  3.801299E-08  3.806587E-08  3.805665E-08  3.681994E-08
 1.264478E-05  1.262785E-05  1.262929E-05  1.263701E-05  1.383457E-05  1.419182E-04  1.815834E-04  1.244581E-04  7.252496E-05  4.194235E-05
 2.666225E-05  2.620094E-05  3.308937E-03  1.817478E-01  1.264706E-05  1.263030E-05  1.263140E-05  1.263519E-05  2.489562E-05  4.740484E-04
 5.391007E-04  4.036552E-04  2.674812E-04  1.511366E-04  8.321192E-05  9.400622E-05  2.000998E-02  2.555719E+00  1.264455E-05  1.262471E-05
 1.260219E-05  1.253941E-05  7.131599E-05  7.963658E-04  8.323519E-04  6.031297E-04  4.352549E-04  3.002771E-04  1.785756E-04  2.005871E-04
 4.984457E-02  1.640208E+01 -4.793766E-07 -4.961747E-07 -4.527864E-07  3.803287E-06  5.204681E-05  2.065981E-04  2.424060E-04  1.032198E-04
 2.214086E-05  3.622720E-06  8.878480E-06  1.170875E-05  3.206949E-05  2.181208E-03 -6.993226E-07 -5.800494E-07 -2.946878E-07  9.287330E-06
 1.535324E-04  5.806054E-04  5.865609E-04  1.591886E-04  1.032101E-05  2.353564E-07  2.128070E-07  2.185969E-07  2.202589E-07  3.198076E-07
 9.977453E-06  9.967045E-06  9.967880E-06  9.972397E-06  1.036876E-05  5.468447E-05  6.842858E-05  4.858589E-05  3.063800E-05  2.011422E-05
 1.485430E-05  1.665560E-05  1.453622E-03  7.935347E-02  9.978512E-06  9.968209E-06  9.968815E-06  9.964090E-06  1.395853E-05  1.910553E-04
 2.213883E-04  1.584664E-04  9.831350E-05  5.765416E-05  3.438246E-05  5.576506E-05  8.769254E-03  1.115740E+00  9.975935E-06  9.963346E-06
 9.946703E-06  9.739879E-06  2.877287E-05  3.423397E-04  3.588034E-04  2.573367E-04  1.769577E-04  1.124547E-04  6.771581E-05  1.325882E-04
 2.183324E-02  7.160587E+00  1.297542E-08  1.570687E-08  3.848825E-08  1.703464E-06  2.201866E-05  8.601970E-05  1.016855E-04  4.409826E-05
 9.023426E-06  3.461576E-06  7.390850E-06  9.296745E-06  1.800775E-05  9.542843E-04  6.818419E-07  8.502669E-07  1.101986E-06  4.239855E-06
 6.591045E-05  2.375386E-04  2.400704E-04  6.836956E-05  4.698349E-06  1.628781E-06  1.654701E-06  1.667629E-06  1.669364E-06  1.711784E-06
 9.977446E-06  9.967038E-06  9.967877E-06  9.976460E-06  2.196843E-05  1.205961E-03  1.574887E-03  1.047260E-03  5.664984E-04  2.833993E-04
 1.413179E-04  8.366739E-05  1.494916E-03  7.937927E-02  9.978505E-06  9.968202E-06  9.968822E-06  1.013431E-05  1.315527E-04  4.844389E-03
 5.656152E-03  3.992861E-03  2.385888E-03  1.294502E-03  6.643248E-04  3.866708E-04  8.950254E-03  1.115841E+00  9.975928E-06  9.963339E-06
 9.948520E-06  1.372314E-05  5.837101E-04  8.870230E-03  9.308948E-03  6.656525E-03  4.511332E-03  2.776053E-03  1.535994E-03  8.626129E-04
 2.215055E-02  7.160659E+00  1.297541E-08  1.570704E-08  4.361126E-07  4.388362E-05  5.717306E-04  2.234809E-03  2.642093E-03  1.150916E-03
 2.305575E-04  1.614054E-05  8.037115E-06  9.332108E-06  1.802103E-05  9.542863E-04  6.818416E-07  8.502666E-07  1.363638E-06  8.876273E-05
 1.706772E-03  6.171301E-03  6.237077E-03  1.770518E-03  9.654393E-05  1.958773E-06  1.654768E-06  1.667629E-06  1.669363E-06  1.711783E-06
 2.095116E-04  2.092932E-04  2.093109E-04  2.094026E-04  2.087374E-04  2.561758E-04  2.709687E-04  2.484893E-04  2.294883E-04  2.190422E-04
 2.142440E-04  2.973707E-04  2.906411E-02  1.586969E+00  2.095344E-04  2.093182E-04  2.093310E-04  2.090997E-04  2.019528E-04  4.060288E-04
 4.414766E-04  3.635371E-04  2.966589E-04  2.548167E-04  2.350808E-04  9.146111E-04  1.753302E-01  2.231324E+01  2.094807E-04  2.092165E-04
 2.088656E-04  2.014301E-04  1.740015E-04  5.803645E-04  6.031993E-04  4.567928E-04  3.642570E-04  3.011830E-04  2.860341E-04  2.236964E-03
 4.365958E-01  1.432020E+02  2.162756E-07  2.786454E-07  4.499103E-07  2.977261E-06  3.619651E-05  1.411856E-04  1.668979E-04  7.246550E-05
 1.829463E-05  6.267475E-05  1.544153E-04  1.948473E-04  3.692609E-04  1.909365E-02  4.307107E-06  7.037068E-06  1.155067E-05  1.472944E-05
 1.091606E-04  3.898759E-04  3.940313E-04  1.132222E-04  1.812730E-05  2.113413E-05  2.168391E-05  2.187233E-05  2.189993E-05  2.274429E-05
 9.977453E-06  9.967045E-06  9.967880E-06  9.972239E-06  9.916293E-06  9.776520E-06  9.737225E-06  9.737484E-06  9.804667E-06  9.879045E-06
 9.937508E-06  1.404985E-05  1.452016E-03  7.935257E-02  9.978512E-06  9.968209E-06  9.968814E-06  9.957450E-06  9.371482E-06  9.541822E-06
 9.595977E-06  9.262304E-06  9.326441E-06  9.538972E-06  9.872694E-06  4.288750E-05  8.762211E-03  1.115737E+00  9.975935E-06  9.963346E-06
 9.946632E-06  9.584502E-06  7.126141E-06  9.688692E-06  9.899022E-06  8.321894E-06  8.246890E-06  8.749199E-06  1.053731E-05  1.041545E-04
 2.182088E-02  7.160584E+00  1.297542E-08  1.570687E-08  2.297790E-08  5.811904E-08  5.757474E-07  2.200715E-06  2.601502E-06  1.147384E-06
 4.200999E-07  2.968588E-06  7.365662E-06  9.295367E-06  1.800723E-05  9.542842E-04  6.818419E-07  8.502669E-07  1.091779E-06  9.428241E-07
 1.904450E-06  6.077143E-06  6.141916E-06  1.972913E-06  1.115679E-06  1.615909E-06  1.654699E-06  1.667629E-06  1.669364E-06  1.711784E-06
 9.977451E-07  9.967043E-07  9.967879E-07  9.972996E-07  1.208413E-06  2.249347E-05  2.909724E-05  1.959231E-05  1.096552E-05  5.893375E-06
 3.350175E-06  2.653786E-06  1.459710E-04  7.935719E-03  9.978510E-07  9.968207E-07  9.968816E-07  9.989262E-07  3.134846E-06  8.791891E-05
 1.024429E-04  7.243160E-05  4.357958E-05  2.401242E-05  1.273282E-05  1.045975E-05  8.795962E-04  1.115755E-01  9.975934E-07  9.963345E-07
 9.946972E-07  1.032893E-06  1.108375E-05  1.603449E-04  1.681666E-04  1.201724E-04  8.167321E-05  5.056948E-05  2.845216E-05  2.403983E-05
 2.188011E-03  7.160598E-01  1.297542E-09  1.570690E-09  9.728930E-09  7.941104E-07  1.033106E-05  4.037846E-05  4.773296E-05  2.070840E-05
 4.166062E-06  5.331258E-07  7.486349E-07  9.301969E-07  1.800971E-06  9.542847E-05  6.818419E-08  8.502668E-08  1.140679E-07  1.673918E-06
 3.085626E-05  1.115029E-04  1.126913E-04  3.200849E-05  1.828055E-06  1.677581E-07  1.654711E-07  1.667629E-07  1.669364E-07  1.711784E-07
 9.977452E-07  9.967044E-07  9.967879E-07  9.972320E-07  1.015231E-06  3.320168E-06  4.035200E-06  3.000156E-06  2.067172E-06  1.521790E-06
 1.250220E-06  1.540906E-06  1.452854E-04  7.935304E-03  9.978511E-07  9.968208E-07  9.968814E-07  9.960913E-07  1.176421E-06  1.042240E-05
 1.200719E-05  8.709018E-06  5.574387E-06  3.463685E-06  2.265751E-06  4.960472E-06  8.765885E-04  1.115738E-01  9.975934E-07  9.963346E-07
 9.946669E-07  9.665551E-07  1.841764E-06  1.832082E-05  1.918961E-05  1.382130E-05  9.625009E-06  6.284436E-06  4.036296E-06  1.189862E-05
 2.182733E-03  7.160585E-01  1.297542E-09  1.570687E-09  3.106850E-09  9.163739E-08  1.176093E-06  2.600157E-06  3.563112E-06  2.355098E-06
 4.907727E-07  3.225741E-07  7.378801E-07  9.296086E-07  1.800750E-06  9.542843E-05  6.818419E-08  8.502669E-08  1.097103E-07  2.662642E-07
 3.529165E-06  1.164295E-05  1.182043E-05  3.660714E-06  2.984493E-07  1.622623E-07  1.654700E-07  1.667629E-07  1.669364E-07  1.711784E-07
 9.977453E-07  9.967045E-07  9.967880E-07  9.972364E-07  1.020136E-06  3.648720E-06  4.463946E-06  3.284469E-06  2.219715E-06  1.596733E-06
 1.286229E-06  1.560016E-06  1.452972E-04  7.935310E-03  9.978512E-07  9.968209E-07  9.968821E-07  9.962831E-07  1.226949E-06  1.175028E-05
 1.355412E-05  9.806442E-06  6.229802E-06  3.818003E-06  2.446285E-06  5.055547E-06  8.766406E-04  1.115739E-01  9.976185E-07  9.963696E-07
 9.947836E-07  9.715565E-07  2.085722E-06  2.075168E-05  2.173719E-05  1.569334E-05  1.089656E-05  7.064254E-06  4.465374E-06  1.211164E-05
 2.182826E-03  7.160586E-01  3.051755E-08  2.818385E-08  2.930873E-08  1.595325E-07  1.431388E-06  5.204174E-06  6.151946E-06  2.820783E-06
 6.965099E-07  4.406691E-07  8.847858E-07  1.101889E-06  1.975810E-06  9.560524E-05  5.273902E-06  5.710261E-06  6.031115E-06  4.868772E-06
 5.740608E-06  1.437104E-05  1.452421E-05  5.933699E-06  5.191911E-06  6.825014E-06  6.958220E-06  7.002721E-06  7.007244E-06  7.013934E-06
 1.865614E-04  1.863642E-04  1.863772E-04  1.864551E-04  1.853645E-04  1.699897E-04  1.651263E-04  1.713727E-04  1.780932E-04  1.824866E-04
 1.848507E-04  1.882743E-04  8.756483E-04  3.712605E-02  1.865807E-04  1.863853E-04  1.863940E-04  1.861821E-04  1.744414E-04  1.262710E-04
 1.188026E-04  1.297256E-04  1.480619E-04  1.648901E-04  1.808243E-04  2.000969E-04  4.374744E-03  5.196327E-01  1.865326E-04  1.862947E-04
 1.859838E-04  1.792845E-04  1.276243E-04  8.539229E-05  8.455716E-05  8.497073E-05  1.062964E-04  1.341435E-04  1.721589E-04  2.270764E-04
 1.063906E-02  3.328845E+00  1.446383E-06  1.590466E-06  1.792713E-06  1.767336E-06  5.067678E-06  1.680028E-05  1.985081E-05  9.761923E-06
 8.326844E-06  5.794727E-05  1.376880E-04  1.736387E-04  1.811957E-04  3.539323E-04  6.586481E-06  9.062250E-06  1.273759E-05  1.062819E-05
 1.482023E-05  4.569489E-05  4.618271E-05  1.534851E-05  1.301779E-05  2.018461E-05  2.069551E-05  2.086486E-05  2.088191E-05  2.093245E-05
 9.993097E-16  9.989585E-16  9.990198E-16  2.379919E-15  4.126545E-12  5.810758E-09  1.240405E-08  1.817083E-09  2.368035E-10  4.448671E-11
 1.103886E-11  4.363359E-12  4.392284E-10  5.073404E-10  9.993033E-16  9.989556E-16  1.007298E-15  1.098902E-13  1.152772E-10  9.130230E-08
 8.399829E-08  5.785787E-08  6.189037E-08  2.408088E-09  2.225833E-10  1.681332E-10  3.227018E-09  4.128970E-09  9.991746E-16  9.987503E-16
 2.749502E-15  5.873469E-12  3.438534E-09  9.960375E-07  1.110448E-06  1.345487E-07  3.610597E-08  9.986944E-08  3.749034E-09  4.895337E-09
 9.331734E-09  1.608085E-08  7.341409E-16  7.528950E-16  8.612466E-13  3.609904E-10  1.363201E-07  2.290539E-06  2.560040E-06  1.305698E-07
 5.751788E-09  6.729035E-12  1.785829E-13  3.551308E-15  3.074300E-15  2.070865E-12  8.109370E-16  8.138589E-16  1.055089E-13  2.425067E-10
 1.431420E-07  6.537807E-06  6.620841E-06  1.422434E-07  2.431732E-10  1.216473E-13  8.228120E-16  8.177263E-16  8.177171E-16  8.173900E-16
 2.522239E-04  2.519608E-04  2.519819E-04  2.520920E-04  2.504677E-04  2.262932E-04  2.189109E-04  2.280999E-04  2.381542E-04  2.449652E-04
 2.489211E-04  3.539476E-04  3.670227E-02  2.005815E+00  2.522506E-04  2.519902E-04  2.520055E-04  2.517152E-04  2.347755E-04  1.632979E-04
 1.530385E-04  1.690153E-04  1.946209E-04  2.187732E-04  2.381748E-04  1.078105E-03  2.214814E-01  2.820276E+01  2.521855E-04  2.518673E-04
 2.514448E-04  2.422189E-04  1.700999E-04  1.092636E-04  1.082850E-04  1.079729E-04  1.365318E-04  1.742584E-04  2.398165E-04  2.619537E-03
 5.515664E-01  1.809999E+02  3.491979E-07  4.181763E-07  5.948635E-07  8.036543E-07  5.704762E-06  2.118300E-05  2.509197E-05  1.131625E-05
 6.933519E-06  7.482980E-05  1.861932E-04  2.349820E-04  4.551950E-04  2.412171E-02  1.725578E-05  2.151311E-05  2.761320E-05  2.234854E-05
 2.178381E-05  5.602021E-05  5.663832E-05  2.253855E-05  2.657958E-05  4.086059E-05  4.184705E-05  4.217389E-05  4.221775E-05  4.329003E-05
 9.977454E-16  9.967046E-16  1.048354E-15  4.313476E-12  1.235760E-08  1.226503E-06  1.603033E-06  1.078233E-06  5.915146E-07  2.947039E-07
 1.429983E-07  7.616535E-08  4.687866E-08  2.594512E-08  9.978512E-16  9.968237E-16  1.266994E-14  1.813328E-10  1.252792E-07  4.957401E-06
 5.784426E-06  4.118414E-06  2.500586E-06  1.363077E-06  6.981133E-07  3.670366E-07  2.000920E-07  9.878410E-08  9.975935E-16  9.968313E-16
 1.944218E-12  4.243595E-09  5.912044E-07  9.085193E-06  9.529049E-06  6.826753E-06  4.684508E-06  2.884598E-06  1.592011E-06  7.922149E-07
 3.445742E-07  8.503028E-08  1.297562E-18  9.648851E-17  4.236106E-10  4.493680E-08  5.856378E-07  2.289221E-06  2.706127E-06  1.172998E-06
 2.349651E-07  1.348875E-08  7.010754E-10  3.841373E-11  1.444084E-11  2.995815E-12  6.818423E-17  1.880122E-16  2.787532E-10  9.004679E-08
 1.748099E-06  6.321556E-06  6.388933E-06  1.813391E-06  9.784803E-08  3.515601E-10  7.237341E-14  1.162906E-15  5.144611E-16  2.360307E-16
 2.100000E-01  2.100000E-01  2.100000E-01  2.100000E-01  2.100000E-01  2.100000E-01  2.100000E-01  2.100000E-01  2.100000E-01  2.100000E-01
 2.100000E-01  2.100000E-01  2.100000E-01  2.100003E-01  2.100000E-01  2.100000E-01  2.100000E-01  2.100000E-01  2.100000E-01  2.100000E-01
 2.100000E-01  2.100000E-01  2.100000E-01  2.100000E-01  2.100000E-01  2.100000E-01  2.100002E-01  2.100070E-01  2.100000E-01  2.100000E-01
 2.100000E-01  2.100000E-01  2.100000E-01  2.100000E-01  2.100000E-01  2.100000E-01  2.100000E-01  2.100000E-01  2.100000E-01  2.100000E-01
 2.100014E-01  2.100907E-01  2.100000E-01  2.100000E-01  2.100000E-01  2.100000E-01  2.100000E-01  2.100000E-01  2.100000E-01  2.100000E-01
 2.100000E-01  2.100000E-01  2.100000E-01  2.100000E-01  2.100000E-01  2.100000E-01  2.100000E-01  2.100000E-01  2.100000E-01  2.100000E-01
 2.100000E-01  2.100000E-01  2.100000E-01  2.100000E-01  2.100000E-01  2.100000E-01  2.100000E-01  2.100000E-01  2.100000E-01  2.100000E-01
 0.000000E+00  0.000000E+00  0.000000E+00  0.000000E+00  0.000000E+00  0.000000E+00  0.000000E+00  0.000000E+00  0.000000E+00  0.000000E+00