TITLE = "  1.0000E+00 [y]"
VARIABLES="X [m]","Y [m]","Z [m]","vlx [m/y]","vly [m/y]","vlz [m/y]","Material_ID"
ZONE T= "  1.0000E+00", I=  15, J=   2, K=   6, DATAPACKING=BLOCK, VARLOCATION=([4-7]=CELLCENTERED)
 0.000000E+00  1.000000E+02  2.000000E+02  3.000000E+02  4.000000E+02  5.000000E+02  6.000000E+02  7.000000E+02  8.000000E+02  9.000000E+02 
 1.000000E+03  1.100000E+03  1.200000E+03  1.300000E+03  1.400000E+03  0.000000E+00  1.000000E+02  2.000000E+02  3.000000E+02  4.000000E+02 
 5.000000E+02  6.000000E+02  7.000000E+02  8.000000E+02  9.000000E+02  1.000000E+03  1.100000E+03  1.200000E+03  1.300000E+03  1.400000E+03 
 0.000000E+00  1.000000E+02  2.000000E+02  3.000000E+02  4.000000E+02  5.000000E+02  6.000000E+02  7.000000E+02  8.000000E+02  9.000000E+02 
 1.000000E+03  1.100000E+03  1.200000E+03  1.300000E+03  1.400000E+03  0.000000E+00  1.000000E+02  2.000000E+02  3.000000E+02  4.000000E+02 
 5.000000E+02  6.000000E+02  7.000000E+02  8.000000E+02  9.000000E+02  1.000000E+03  1.100000E+03  1.200000E+03  1.300000E+03  1.400000E+03 
 0.000000E+00  1.000000E+02  2.000000E+02  3.000000E+02  4.000000E+02  5.000000E+02  6.000000E+02  7.000000E+02  8.000000E+02  9.000000E+02 
 1.000000E+03  1.100000E+03  1.200000E+03  1.300000E+03  1.400000E+03  0.000000E+00  1.000000E+02  2.000000E+02  3.000000E+02  4.000000E+02 
 5.000000E+02  6.000000E+02  7.000000E+02  8.000000E+02  9.000000E+02  1.000000E+03  1.100000E+03  1.200000E+03  1.300000E+03  1.400000E+03 
 0.000000E+00  1.000000E+02  2.000000E+02  3.000000E+02  4.000000E+02  5.000000E+02  6.000000E+02  7.000000E+02  8.000000E+02  9.000000E+02 
 1.000000E+03  1.100000E+03  1.200000E+03  1.300000E+03  1.400000E+03  0.000000E+00  1.000000E+02  2.000000E+02  3.000000E+02  4.000000E+02 
 5.000000E+02  6.000000E+02  7.000000E+02  8.000000E+02  9.000000E+02  1.000000E+03  1.100000E+03  1.200000E+03  1.300000E+03  1.400000E+03 
 0.000000E+00  1.000000E+02  2.000000E+02  3.000000E+02  4.000000E+02  5.000000E+02  6.000000E+02  7.000000E+02  8.000000E+02  9.000000E+02 
 1.000000E+03  1.100000E+03  1.200000E+03  1.300000E+03  1.400000E+03  0.000000E+00  1.000000E+02  2.000000E+02  3.000000E+02  4.000000E+02 
 5.000000E+02  6.000000E+02  7.000000E+02  8.000000E+02  9.000000E+02  1.000000E+03  1.100000E+03  1.200000E+03  1.300000E+03  1.400000E+03 
 0.000000E+00  1.000000E+02  2.000000E+02  3.000000E+02  4.000000E+02  5.000000E+02  6.000000E+02  7.000000E+02  8.000000E+02  9.000000E+02 
 1.000000E+03  1.100000E+03  1.200000E+03  1.300000E+03  1.400000E+03  0.000000E+00  1.000000E+02  2.000000E+02  3.000000E+02  4.000000E+02 
 5.000000E+02  6.000000E+02  7.000000E+02  8.000000E+02  9.000000E+02  1.000000E+03  1.100000E+03  1.200000E+03  1.300000E+03  1.400000E+03 
 0.000000E+00  0.000000E+00  0.000000E+00  0.000000E+00  0.000000E+00  0.000000E+00  0.000000E+00  0.000000E+00  0.000000E+00  0.000000E+00 
 0.000000E+00  0.000000E+00  0.000000E+00  0.000000E+00  0.000000E+00  1.000000E+00  1.000000E+00  1.000000E+00  1.000000E+00  1.000000E+00 
 1.000000E+00  1.000000E+00  1.000000E+00  1.000000E+00  1.000000E+00  1.000000E+00  1.000000E+00  1.000000E+00  1.000000E+00  1.000000E+00 
 0.000000E+00  0.000000E+00  0.000000E+00  0.000000E+00  0.000000E+00  0.000000E+00  0.000000E+00  0.000000E+00  0.000000E+00  0.000000E+00 
 0.000000E+00  0.000000E+00  0.000000E+00  0.000000E+00  0.000000E+00  1.000000E+00  1.000000E+00  1.000000E+00  1.000000E+00  1.000000E+00 
 1.000000E+00  1.000000E+00  1.000000E+00  1.000000E+00  1.000000E+00  1.000000E+00  1.000000E+00  1.000000E+00  1.000000E+00  1.000000E+00 
 0.000000E+00  0.000000E+00  0.000000E+00  0.000000E+00  0.000000E+00  0.000000E+00  0.000000E+00  0.000000E+00  0.000000E+00  0.000000E+00 
 0.000000E+00  0.000000E+00  0.000000E+00  0.000000E+00  0.000000E+00  1.000000E+00  1.000000E+00  1.000000E+00  1.000000E+00  1.000000E+00 
 1.000000E+00  1.000000E+00  1.000000E+00  1.000000E+00  1.000000E+00  1.000000E+00  1.000000E+00  1.000000E+00  1.000000E+00  1.000000E+00 
 0.000000E+00  0.000000E+00  0.000000E+00  0.000000E+00  0.000000E+00  0.000000E+00  0.000000E+00  0.000000E+00  0.000000E+00  0.000000E+00 
 0.000000E+00  0.000000E+00  0.000000E+00  0.000000E+00  0.000000E+00  1.000000E+00  1.000000E+00  1.000000E+00  1.000000E+00  1.000000E+00 
 1.000000E+00  1.000000E+00  1.000000E+00  1.000000E+00  1.000000E+00  1.000000E+00  1.000000E+00  1.000000E+00  1.000000E+00  1.000000E+00 
 0.000000E+00  0.000000E+00  0.000000E+00  0.000000E+00  0.000000E+00  0.000000E+00  0.000000E+00  0.000000E+00  0.000000E+00  0.000000E+00 
 0.000000E+00  0.000000E+00  0.000000E+00  0.000000E+00  0.000000E+00  1.000000E+00  1.000000E+00  1.000000E+00  1.000000E+00  1.000000E+00 
 1.000000E+00  1.000000E+00  1.000000E+00  1.000000E+00  1.000000E+00  1.000000E+00  1.000000E+00  1.000000E+00  1.000000E+00  1.000000E+00 
 0.000000E+00  0.000000E+00  0.000000E+00  0.000000E+00  0.000000E+00  0.000000E+00  0.000000E+00  0.000000E+00  0.000000E+00  0.000000E+00 
 0.000000E+00  0.000000E+00  0.000000E+00  0.000000E+00  0.000000E+00  1.000000E+00  1.000000E+00  1.000000E+00  1.000000E+00  1.000000E+00 
 1.000000E+00  1.000000E+00  1.000000E+00  1.000000E+00  1.000000E+00  1.000000E+00  1.000000E+00  1.000000E+00  1.000000E+00  1.000000E+00 
 0.000000E+00  0.000000E+00  0.000000E+00  0.000000E+00  0.000000E+00  0.000000E+00  0.000000E+00  0.000000E+00  0.000000E+00  0.000000E+00 
 0.000000E+00  0.000000E+00  0.000000E+00  0.000000E+00  0.000000E+00  0.000000E+00  0.000000E+00  0.000000E+00  0.000000E+00  0.000000E+00 
 0.000000E+00  0.000000E+00  0.000000E+00  0.000000E+00  0.000000E+00  0.000000E+00  0.000000E+00  0.000000E+00  0.000000E+00  0.000000E+00 
 1.000000E+01  1.000000E+01  1.000000E+01  1.000000E+01  1.000000E+01  1.000000E+01  1.000000E+01  1.000000E+01  1.000000E+01  1.000000E+01 
 1.000000E+01  1.000000E+01  1.000000E+01  1.000000E+01  1.000000E+01  1.000000E+01  1.000000E+01  1.000000E+01  1.000000E+01  1.000000E+01 
 1.000000E+01  1.000000E+01  1.000000E+01  1.000000E+01  1.000000E+01  1.000000E+01  1.000000E+01  1.000000E+01  1.000000E+01  1.000000E+01 
 2.000000E+01  2.000000E+01  2.000000E+01  2.000000E+01  2.000000E+01  2.000000E+01  2.000000E+01  2.000000E+01  2.000000E+01  2.000000E+01 
 2.000000E+01  2.000000E+01  2.000000E+01  2.000000E+01  2.000000E+01  2.000000E+01  2.000000E+01  2.000000E+01  2.000000E+01  2.000000E+01 
 2.000000E+01  2.000000E+01  2.000000E+01  2.000000E+01  2.000000E+01  2.000000E+01  2.000000E+01  2.000000E+01  2.000000E+01  2.000000E+01 
 3.000000E+01  3.000000E+01  3.000000E+01  3.000000E+01  3.000000E+01  3.000000E+01  3.000000E+01  3.000000E+01  3.000000E+01  3.000000E+01 
 3.000000E+01  3.000000E+01  3.000000E+01  3.000000E+01  3.000000E+01  3.000000E+01  3.000000E+01  3.000000E+01  3.000000E+01  3.000000E+01 
 3.000000E+01  3.000000E+01  3.000000E+01  3.000000E+01  3.000000E+01  3.000000E+01  3.000000E+01  3.000000E+01  3.000000E+01  3.000000E+01 
 4.000000E+01  4.000000E+01  4.000000E+01  4.000000E+01  4.000000E+01  4.000000E+01  4.000000E+01  4.000000E+01  4.000000E+01  4.000000E+01 
 4.000000E+01  4.000000E+01  4.000000E+01  4.000000E+01  4.000000E+01  4.000000E+01  4.000000E+01  4.000000E+01  4.000000E+01  4.000000E+01 
 4.000000E+01  4.000000E+01  4.000000E+01  4.000000E+01  4.000000E+01  4.000000E+01  4.000000E+01  4.000000E+01  4.000000E+01  4.000000E+01 
 5.000000E+01  5.000000E+01  5.000000E+01  5.000000E+01  5.000000E+01  5.000000E+01  5.000000E+01  5.000000E+01  5.000000E+01  5.000000E+01 
 5.000000E+01  5.000000E+01  5.000000E+01  5.000000E+01  5.000000E+01  5.000000E+01  5.000000E+01  5.000000E+01  5.000000E+01  5.000000E+01 
 5.000000E+01  5.000000E+01  5.000000E+01  5.000000E+01  5.000000E+01  5.000000E+01  5.000000E+01  5.000000E+01  5.000000E+01  5.000000E+01 
 9.755456E+00  1.000354E+01  1.096424E+01  1.448150E+01  2.567387E+01  5.325421E+01  9.201002E+01  1.207142E+02  1.329000E+02  1.372130E+02
 1.404173E+02  1.489769E+02  1.691070E+02  1.914050E+02  9.664989E+00  9.744602E+00  1.003657E+01  1.169748E+01  1.972968E+01  4.919891E+01
 9.565052E+01  1.266983E+02  1.357482E+02  1.376080E+02  1.384682E+02  1.447735E+02  1.683123E+02  1.994809E+02  9.545646E+00  9.408653E+00
 8.612467E+00  6.603016E+00  6.011689E+00  3.898527E+01  1.048771E+02  1.406597E+02  1.412038E+02  1.383656E+02  1.345445E+02  1.197449E+02
 7.598366E+01  2.224137E+01  3.271804E-01  5.375552E-01 -3.740174E-01 -4.017202E+00 -1.510696E+01 -8.418855E+00  1.882641E+01  2.022178E+01
 5.981767E+00  1.471227E+00  1.665402E-01  2.860289E-02  3.417990E-03  1.238465E-03  1.271168E-02  1.855068E-02 -8.329932E-02 -9.185614E-01
-8.181514E+00 -7.299769E+00  7.475111E+00  8.265494E+00  9.417959E-01  1.040449E-01  6.448628E-03  1.665317E-03  2.625925E-04  9.290726E-05
 0.000000E+00  0.000000E+00  0.000000E+00  0.000000E+00  0.000000E+00  0.000000E+00  0.000000E+00  0.000000E+00  0.000000E+00  0.000000E+00
 0.000000E+00  0.000000E+00  0.000000E+00  0.000000E+00  0.000000E+00  0.000000E+00  0.000000E+00  0.000000E+00  0.000000E+00  0.000000E+00
 0.000000E+00  0.000000E+00  0.000000E+00  0.000000E+00  0.000000E+00  0.000000E+00  0.000000E+00  0.000000E+00  0.000000E+00  0.000000E+00
 0.000000E+00  0.000000E+00  0.000000E+00  0.000000E+00  0.000000E+00  0.000000E+00  0.000000E+00  0.000000E+00  0.000000E+00  0.000000E+00
 0.000000E+00  0.000000E+00  0.000000E+00  0.000000E+00  0.000000E+00  0.000000E+00  0.000000E+00  0.000000E+00  0.000000E+00  0.000000E+00
 0.000000E+00  0.000000E+00  0.000000E+00  0.000000E+00  0.000000E+00  0.000000E+00  0.000000E+00  0.000000E+00  0.000000E+00  0.000000E+00
 0.000000E+00  0.000000E+00  0.000000E+00  0.000000E+00  0.000000E+00  0.000000E+00  0.000000E+00  0.000000E+00  0.000000E+00  0.000000E+00
-9.234165E-03 -4.038629E-02 -1.517637E-01 -5.517129E-01 -1.686817E+00 -3.829368E+00 -3.921925E+00 -1.818950E+00 -6.181374E-01 -2.443409E-01
-3.963933E-01 -1.315391E+00 -2.710508E+00 -1.748928E+00 -1.155148E-02 -4.603296E-02 -1.753217E-01 -6.942701E-01 -2.347551E+00 -6.115740E+00
-6.280960E+00 -2.564836E+00 -7.772487E-01 -2.711639E-01 -4.555279E-01 -1.886754E+00 -4.493058E+00 -3.083240E+00 -1.435971E-02 -3.749197E-02
-1.334555E-01 -7.013281E-01 -3.084731E+00 -1.162330E+01 -1.200839E+01 -3.520795E+00 -7.806953E-01 -1.697722E-01 -2.607010E-01 -1.232096E+00
-3.144166E+00 -2.218260E+00 -7.425010E-02 -6.647855E-02 -8.352392E-02 -4.068396E-01 -2.401711E+00 -1.636532E+01 -1.663518E+01 -2.693556E+00
-4.434370E-01 -8.011712E-02 -6.763124E-02 -7.123998E-02 -7.514350E-02 -7.863302E-02 -2.535148E-01 -2.415164E-01 -2.361982E-01 -3.106151E-01
-1.007813E+00 -1.241984E+01 -1.242232E+01 -1.014811E+00 -3.176116E-01 -2.460282E-01 -2.509515E-01 -2.548934E-01 -2.554715E-01 -2.558388E-01
  2   2   2   2   2   2   2   2   2   2
  2   2   2   2   2   2   2   2   2   2
  2   2   2   2   2   2   2   2   2   2
  2   2   2   2   2   2   2   2   2   2
  2   2   2   2   2   2   2   2   2   2
  2   2   2   2   2   2   2   2   2   2
  2   2   2   2   2   2   2   2   2   2
