# vtk DataFile Version 2.0
PFLOTRAN output
ASCII
DATASET UNSTRUCTURED_GRID
POINTS           16 float
 1.000000E+00  2.000000E+00  3.000000E+00
 2.300000E+00  2.000000E+00  3.000000E+00
 1.000000E+00  2.700000E+00  3.000000E+00
 2.300000E+00  2.700000E+00  3.000000E+00
 1.000000E+00  2.000000E+00  3.300000E+00
 2.300000E+00  2.000000E+00  3.300000E+00
 1.000000E+00  2.700000E+00  3.300000E+00
 2.300000E+00  2.700000E+00  3.300000E+00
 1.000000E+00  2.000000E+00  3.650000E+00
 2.300000E+00  2.000000E+00  3.650000E+00
 1.000000E+00  2.700000E+00  3.650000E+00
 2.300000E+00  2.700000E+00  3.650000E+00
 1.000000E+00  2.000000E+00  4.020000E+00
 2.300000E+00  2.000000E+00  4.020000E+00
 1.000000E+00  2.700000E+00  4.020000E+00
 2.300000E+00  2.700000E+00  4.020000E+00
CELLS            3           27
8        0        1        3        2        4        5        7        6
8        4        5        7        6        8        9       11       10
8        8        9       11       10       12       13       15       14

CELL_TYPES            3
12
12
12

CELL_DATA       3
SCALARS Liquid_Pressure      float 1
LOOKUP_TABLE default
 2.000030E+05  2.000020E+05  2.000010E+05


SCALARS Liquid_Density       float 1
LOOKUP_TABLE default
 1.000000E+03  1.000000E+03  1.000000E+03


SCALARS Porosity             float 1
LOOKUP_TABLE default
 3.000000E-01  2.000000E-01  1.000000E-01


SCALARS Tortuosity           float 1
LOOKUP_TABLE default
 3.000000E-01  2.000000E-01  1.000000E-01


SCALARS Permeability_X       float 1
LOOKUP_TABLE default
 3.000000E-12  2.000000E-12  1.000000E-12


SCALARS Permeability_Y       float 1
LOOKUP_TABLE default
 3.000000E-12  2.000000E-12  1.000000E-12


SCALARS Permeability_Z       float 1
LOOKUP_TABLE default
 3.000000E-12  2.000000E-12  1.000000E-12


SCALARS Volume               float 1
LOOKUP_TABLE default
 2.730000E-01  3.185000E-01  3.367000E-01


SCALARS Natural_ID           int 1
LOOKUP_TABLE default
  1
  2
  3


SCALARS Process_ID           int 1
LOOKUP_TABLE default
  0
  0
  0


SCALARS Free_Tracer          float 1
LOOKUP_TABLE default
 3.000000E-03  2.000000E-03  1.000000E-03


SCALARS Material_ID          int 1
LOOKUP_TABLE default
  3
  2
  1


