TITLE = "  0.00000E+00 [y]"
VARIABLES="X [m]","Y [m]","Z [m]","Liquid Pressure [Pa]","Liquid Density [kg/m^3]","Porosity","Tortuosity","Permeability X [m^2]","Permeability Y [m^2]","Permeability Z [m^2]","Volume [m^3]","Natural ID","Process ID","Free Tracer [M]","Material ID"
ZONE T="0.00000E+00", I=1, J=1, K=3, DATAPACKING=POINT
 1.650000E+00  2.350000E+00  3.150000E+00  2.000030E+05  1.000000E+03  3.000000E-01  3.000000E-01  3.000000E-12  3.000000E-12  3.000000E-12  2.730000E-01    0    1  3.000000E-03    3 
 1.650000E+00  2.350000E+00  3.475000E+00  2.000020E+05  1.000000E+03  2.000000E-01  2.000000E-01  2.000000E-12  2.000000E-12  2.000000E-12  3.185000E-01    0    2  2.000000E-03    2 
 1.650000E+00  2.350000E+00  3.835000E+00  2.000010E+05  1.000000E+03  1.000000E-01  1.000000E-01  1.000000E-12  1.000000E-12  1.000000E-12  3.367000E-01    0    3  1.000000E-03    1 
