TITLE = "  0.00000E+00 [y]"
VARIABLES="X [m]","Y [m]","Z [m]","Liquid Pressure [Pa]","Liquid Density [kg/m^3]","Porosity","Tortuosity","Permeability X [m^2]","Permeability Y [m^2]","Permeability Z [m^2]","Volume [m^3]","Natural ID","Process ID","Free Tracer [M]","Material ID"
ZONE T="0.00000E+00", N=16, E=3, ZONETYPE=FEBRICK, VARLOCATION=([4-15]=CELLCENTERED), DATAPACKING=BLOCK
# vertex x-coordinate
 1.000000E+00  2.300000E+00  1.000000E+00  2.300000E+00  1.000000E+00  2.300000E+00  1.000000E+00  2.300000E+00  1.000000E+00  2.300000E+00
 1.000000E+00  2.300000E+00  1.000000E+00  2.300000E+00  1.000000E+00  2.300000E+00
# vertex y-coordinate
 2.000000E+00  2.000000E+00  2.700000E+00  2.700000E+00  2.000000E+00  2.000000E+00  2.700000E+00  2.700000E+00  2.000000E+00  2.000000E+00
 2.700000E+00  2.700000E+00  2.000000E+00  2.000000E+00  2.700000E+00  2.700000E+00
# vertex z-coordinate
 3.000000E+00  3.000000E+00  3.000000E+00  3.000000E+00  3.300000E+00  3.300000E+00  3.300000E+00  3.300000E+00  3.650000E+00  3.650000E+00
 3.650000E+00  3.650000E+00  4.020000E+00  4.020000E+00  4.020000E+00  4.020000E+00
 2.000030E+05  2.000020E+05  2.000010E+05
 1.000000E+03  1.000000E+03  1.000000E+03
 3.000000E-01  2.000000E-01  1.000000E-01
 3.000000E-01  2.000000E-01  1.000000E-01
 3.000000E-12  2.000000E-12  1.000000E-12
 3.000000E-12  2.000000E-12  1.000000E-12
 3.000000E-12  2.000000E-12  1.000000E-12
 2.730000E-01  3.185000E-01  3.367000E-01
 1  2  3
 0  0  0
 3.000000E-03  2.000000E-03  1.000000E-03
 3  2  1
 1  2  4  3  5  6  8  7
   5    6    8    7    9   10   12   11
   9   10   12   11   13   14   16   15
